
Running Job 1 of 1 phenolate.in
qchem phenolate.in_27738.0 /expanse/lustre/scratch/jcga/temp_project/qcscratch/10604213/qchem27738/ 0
/cm/shared/apps/spack/cpu/opt/spack/linux-centos8-zen2/gcc-10.2.0/qchem-5.3-5qddma6gy34jvefiv7mbcb7qm253n45r/exe/qcprog.exe_s phenolate.in_27738.0 /expanse/lustre/scratch/jcga/temp_project/qcscratch/10604213/qchem27738/
                  Welcome to Q-Chem
     A Quantum Leap Into The Future Of Chemistry


 Q-Chem 5.3, Q-Chem, Inc., Pleasanton, CA (2020)

 License issued to: University of California, San Diego (site)

 Yihan Shao,  Zhengting Gan,  E. Epifanovsky,  A. T. B. Gilbert,  M. Wormit,  
 J. Kussmann,  A. W. Lange,  A. Behn,  Jia Deng,  Xintian Feng,  D. Ghosh,  
 M. Goldey,  P. R. Horn,  L. D. Jacobson,  I. Kaliman,  T. Kus,  A. Landau,  
 Jie Liu,  E. I. Proynov,  R. M. Richard,  R. P. Steele,  E. J. Sundstrom,  
 H. L. Woodcock III,  P. M. Zimmerman,  D. Zuev,  B. Alam,  B. Albrecht,  
 A. Aldossary,  E. Alguire,  S. A. Baeppler,  D. Barton,  Z. Benda,  
 Y. A. Bernard,  E. J. Berquist,  K. B. Bravaya,  H. Burton,  K. Carter-Fenk,  
 D. Casanova,  Chun-Min Chang,  Yunqing Chen,  A. Chien,  K. D. Closser,  
 M. P. Coons,  S. Coriani,  S. Dasgupta,  A. L. Dempwolff,  M. Diedenhofen,  
 Hainam Do,  R. G. Edgar,  Po-Tung Fang,  S. Faraji,  S. Fatehi,  
 Qingguo Feng,  J. Fosso-Tande,  J. Gayvert,  Qinghui Ge,  A. Ghysels,  
 G. Gidofalvi,  J. Gomes,  J. Gonthier,  S. Gulania,  A. Gunina,  D. Hait,  
 M. W. D. Hanson-Heine,  S. Hammes-Schiffer,  P. H. P. Harbach,  
 A. W. Hauser,  M. F. Herbst,  J. E. Herr,  E. G. Hohenstein,  Z. C. Holden,  
 S. Houck,  Kerwin Hui,  B. C. Huynh,  M. Ivanov,  T.-C. Jagau,  Hyunjun Ji,  
 B. Kaduk,  K. Khistyaev,  Jaehoon Kim,  P. Klunzinger,  K. Koh,  
 D. Kosenkov,  L. Koulias,  T. Kowalczyk,  C. M. Krauter,  A. Kunitsa,  
 Ka Un Lao,  A. Laurent,  K. V. Lawler,  Joonho Lee,  D. Lefrancois,  
 S. Lehtola,  D. S. Levine,  Yi-Pei Li,  You-Sheng Lin,  Fenglai Liu,  
 Kuan-Yu Liu,  E. Livshits,  M. Loipersberger,  A. Luenser,  P. Manohar,  
 E. Mansoor,  S. F. Manzer,  Shan-Ping Mao,  Yuezhi Mao,  N. Mardirossian,  
 A. V. Marenich,  T. Markovich,  L. A. Martinez-Martinez,  S. A. Maurer,  
 N. J. Mayhall,  S. C. McKenzie,  J.-M. Mewes,  P. Morgante,  A. F. Morrison,  
 J. W. Mullinax,  K. Nanda,  T. S. Nguyen-Beck,  R. Olivares-Amaya,  
 K. J. Oosterbaan,  J. A. Parkhill,  S. K. Paul,  F. Pavosevic,  Zheng Pei,  
 T. M. Perrine,  F. Plasser,  P. Pokhilko,  S. Prager,  A. Prociuk,  
 E. Ramos,  B. Rana,  D. R. Rehn,  F. Rob,  E. Rossomme,  M. Scheurer,  
 M. Schneider,  N. Sergueev,  S. M. Sharada,  S. Sharma,  W. Skomorowski,  
 D. W. Small,  T. Stauch,  C. J. Stein,  T. Stein,  Yu-Chuan Su,  
 S. P. Veccham,  Zhen Tao,  A. J. W. Thom,  A. Tkatchenko,  T. Tsuchimochi,  
 N. M. Tubman,  L. Vogt,  M. L. Vidal,  O. Vydrov,  M. A. Watson,  J. Wenzel,  
 M. de Wergifosse,  T. A. Wesolowski,  A. White,  J. Witte,  A. Yamada,  
 Jun Yang,  K. Yao,  S. Yeganeh,  S. R. Yost,  Zhi-Qiang You,  A. Zech,  
 Igor Ying Zhang,  Xing Zhang,  Yan Zhao,  Ying Zhu,  B. R. Brooks,  
 G. K. L. Chan,  C. J. Cramer,  M. S. Gordon,  W. J. Hehre,  A. Klamt,  
 M. W. Schmidt,  C. D. Sherrill,  D. G. Truhlar,  A. Aspuru-Guzik,  R. Baer,  
 A. T. Bell,  N. A. Besley,  Jeng-Da Chai,  A. E. DePrince, III,  
 R. A. DiStasio Jr.,  A. Dreuw,  B. D. Dunietz,  T. R. Furlani,  
 Chao-Ping Hsu,  Yousung Jung,  Jing Kong,  D. S. Lambrecht,  WanZhen Liang,  
 C. Ochsenfeld,  V. A. Rassolov,  L. V. Slipchenko,  J. E. Subotnik,  
 T. Van Voorhis,  J. M. Herbert,  A. I. Krylov,  P. M. W. Gill,  M. Head-Gordon

 Contributors to earlier versions of Q-Chem not listed above: 
 R. D. Adamson,  B. Austin,  J. Baker,  G. J. O. Beran,  K. Brandhorst,  
 S. T. Brown,  E. F. C. Byrd,  A. K. Chakraborty,  C.-L. Cheng,  
 Siu Hung Chien,  D. M. Chipman,  D. L. Crittenden,  H. Dachsel,  
 R. J. Doerksen,  A. D. Dutoi,  L. Fusti-Molnar,  W. A. Goddard III,  
 A. Golubeva-Zadorozhnaya,  S. R. Gwaltney,  G. Hawkins,  A. Heyden,  
 S. Hirata,  G. Kedziora,  F. J. Keil,  C. Kelley,  Jihan Kim,  R. A. King,  
 R. Z. Khaliullin,  P. P. Korambath,  W. Kurlancheek,  A. M. Lee,  M. S. Lee,  
 S. V. Levchenko,  Ching Yeh Lin,  D. Liotard,  R. C. Lochan,  I. Lotan,  
 P. E. Maslen,  N. Nair,  D. P. O'Neill,  D. Neuhauser,  E. Neuscamman,  
 C. M. Oana,  R. Olson,  B. Peters,  R. Peverati,  P. A. Pieniazek,  
 Y. M. Rhee,  J. Ritchie,  M. A. Rohrdanz,  E. Rosta,  N. J. Russ,  
 H. F. Schaefer III,  N. E. Schultz,  N. Shenvi,  A. C. Simmonett,  A. Sodt,  
 D. Stuck,  K. S. Thanthiriwatte,  V. Vanovschi,  Tao Wang,  A. Warshel,  
 C. F. Williams,  Q. Wu,  X. Xu,  W. Zhang

 Please cite Q-Chem as follows:
 Y. Shao et al., Mol. Phys. 113, 184-215 (2015)
 DOI: 10.1080/00268976.2014.952696

 Q-Chem 5.3.1 for Intel X86 EM64T Linux

 Parts of Q-Chem use Armadillo 9.800.1 (Horizon Scraper).
 http://arma.sourceforge.net/

 Q-Chem begins on Tue Mar 15 12:51:07 2022  

Host: 
0

     Scratch files written to /expanse/lustre/scratch/jcga/temp_project/qcscratch/10604213/qchem27738//
 Aug2920 |scratch|qcdevops|jenkins|workspace|build_RNUM    
Processing $rem in /cm/shared/apps/spack/cpu/opt/spack/linux-centos8-zen2/gcc-10.2.0/qchem-5.3-5qddma6gy34jvefiv7mbcb7qm253n45r/config/preferences:
Processing $rem in /home/jcga/.qchemrc:

Checking the input file for inconsistencies... 	...done.

--------------------------------------------------------------
User input:
--------------------------------------------------------------
$molecule
-1 1
C         0.2923776196   -1.2054637110    0.0000000000
C        -1.0868923075   -1.1922796514    0.0000000000
C        -1.8120765977   -0.0000142811    0.0000000000
C        -1.0868882509    1.1922500200    0.0000000000
C         0.2923806541    1.2054280900    0.0000000000
C         1.0836444400   -0.0000198120    0.0000000000
O         2.3402385633   -0.0000201662    0.0000000000
H         0.8338161207   -2.1459753124    0.0000000000
H        -1.6223577772   -2.1387950339    0.0000000000
H        -2.8950538111   -0.0000126800    0.0000000000
H        -1.6223516672    2.1387665126    0.0000000000
H         0.8338250229    2.1459363137    0.0000000000
$end

$rem
BASIS  =  cc-pVTZ
GUI  =  2
JOB_TYPE  =  Frequency
METHOD  =  wB97XD
SCF_CONVERGENCE  =  8
$end
--------------------------------------------------------------
 Atom   5: (  1.2054456651, -0.0000000000,  0.2853365858)
         ->(  1.2054461359, -0.0000000000,  0.2853376169)
 Atom   4: (  1.1922652692,  0.0000000000, -1.0939322970)
         ->(  1.1922644022, -0.0000000000, -1.0939323325)
 Atom   3: ( -0.0000002548,  0.0000000000, -1.8191186332)
         ->(  0.0000000000,  0.0000000000, -1.8191186332)
 Atom   6: ( -0.0000009026, -0.0000000000,  1.0766024045)
         ->(  0.0000000000,  0.0000000000,  1.0766024045)
 Atom   7: (  0.0000008623, -0.0000000000,  2.3331965278)
         ->(  0.0000000000,  0.0000000000,  2.3331965278)
 Atom  12: (  2.1459548019, -0.0000000000,  0.8267793686)
         ->(  2.1459568243, -0.0000000000,  0.8267777040)
 Atom  11: (  2.1387808588,  0.0000000000, -1.6293973094)
         ->(  2.1387806877, -0.0000000000, -1.6293962060)
 Atom  10: ( -0.0000004800,  0.0000000000, -2.9020958466)
         ->(  0.0000000000,  0.0000000000, -2.9020958466)
 ----------------------------------------------------------------
             Standard Nuclear Orientation (Angstroms)
    I     Atom           X                Y                Z
 ----------------------------------------------------------------
    1      C      -1.2054461359     0.0000000000     0.2853376169
    2      C      -1.1922644022     0.0000000000    -1.0939323325
    3      C       0.0000000000     0.0000000000    -1.8191186332
    4      C       1.1922644022    -0.0000000000    -1.0939323325
    5      C       1.2054461359    -0.0000000000     0.2853376169
    6      C       0.0000000000     0.0000000000     1.0766024045
    7      O       0.0000000000     0.0000000000     2.3331965278
    8      H      -2.1459568243     0.0000000000     0.8267777040
    9      H      -2.1387806877     0.0000000000    -1.6293962060
   10      H       0.0000000000     0.0000000000    -2.9020958466
   11      H       2.1387806877    -0.0000000000    -1.6293962060
   12      H       2.1459568243    -0.0000000000     0.8267777040
 ----------------------------------------------------------------
 Molecular Point Group                 C2v   NOp =  4
 Largest Abelian Subgroup              C2v   NOp =  4
 Nuclear Repulsion Energy =         260.68379646 hartrees
 There are       25 alpha and       25 beta electrons
 Requested basis set is cc-pVTZ
 There are 100 shells and 280 basis functions

 Total QAlloc Memory Limit   8000 MB
 Mega-Array Size       188 MB
 MEM_STATIC part       192 MB

                       Distance Matrix (Angstroms)
             C (  1)   C (  2)   C (  3)   C (  4)   C (  5)   C (  6)
   C (  2)  1.379333
   C (  3)  2.425250  1.395489
   C (  4)  2.766117  2.384529  1.395489
   C (  5)  2.410892  2.766117  2.425250  1.379333
   C (  6)  1.441943  2.476432  2.895721  2.476432  1.441943
   O (  7)  2.376305  3.628596  4.152315  3.628596  2.376305  1.256594
   H (  8)  1.085227  2.144448  3.406743  3.851344  3.394858  2.160450
   H (  9)  2.130098  1.087481  2.147179  3.373808  3.853577  3.449175
   H ( 10)  3.407761  2.165860  1.082977  2.165860  3.407761  3.978698
   H ( 11)  3.853577  3.373808  2.147179  1.087481  2.130098  3.449175
   H ( 12)  3.394858  3.851344  3.406743  2.144448  1.085227  2.160450
             O (  7)   H (  8)   H (  9)   H ( 10)   H ( 11)
   H (  8)  2.621913
   H (  9)  4.502946  2.456184
   H ( 10)  5.235292  4.302282  2.488804
   H ( 11)  4.502946  4.938802  4.277561  2.488804
   H ( 12)  2.621913  4.291914  4.938802  4.302282  2.456184
 
 A cutoff of  1.0D-11 yielded   4698 shell pairs
 There are     36940 function pairs (     48403 Cartesian)
 Smallest overlap matrix eigenvalue = 4.65E-05
 Guess from superposition of atomic densities
 Warning:  Energy on first SCF cycle will be non-variational
 SAD guess density has 49.000000 electrons

 -----------------------------------------------------------------------
  General SCF calculation program by
  Eric Jon Sundstrom, Paul Horn, Yuezhi Mao, Dmitri Zuev, Alec White,
  David Stuck, Shaama M.S., Shane Yost, Joonho Lee, David Small,
  Daniel Levine, Susi Lehtola, Hugh Burton, Evgeny Epifanovsky,
  Bang C. Huynh
 -----------------------------------------------------------------------
 Exchange:     0.2220 Hartree-Fock + 1.0000 wB97X-D + LR-HF
 Correlation:  1.0000 wB97X-D
 Using SG-2 standard quadrature grid
 Dispersion:   Grimme D
 using 2 threads for integral computing
 -------------------------------------------------------
 OpenMP Integral computing Module                
 Release: version 1.0, May 2013, Q-Chem Inc. Pittsburgh 
 -------------------------------------------------------
 using 2 threads for integral computing
 -------------------------------------------------------
 OpenMP Integral computing Module                
 Release: version 1.0, May 2013, Q-Chem Inc. Pittsburgh 
 -------------------------------------------------------
 A restricted SCF calculation will be
 performed using DIIS
 SCF converges when DIIS error is below 1.0e-08
 ---------------------------------------
  Cycle       Energy         DIIS error
 ---------------------------------------
    1    -308.7341431885      3.15e-02  
    2    -306.7142276674      4.32e-03  
    3    -306.7109707360      5.06e-03  
    4    -306.8841812162      8.25e-04  
    5    -306.8896704342      2.40e-04  
    6    -306.8901858576      3.10e-05  
    7    -306.8902045383      8.72e-06  
    8    -306.8902073575      4.21e-06  
    9    -306.8902077725      1.76e-06  
   10    -306.8902078513      5.05e-07  
   11    -306.8902078558      2.21e-07  
   12    -306.8902078567      7.89e-08  
   13    -306.8902078565      1.46e-08  
   14    -306.8902078560      4.84e-09  Convergence criterion met
 ---------------------------------------
 SCF time:   CPU 214.18s  wall 108.00s 
 SCF   energy in the final basis set =     -306.8902078560
 Total energy in the final basis set =     -306.8902078560
 
 --------------------------------------------------------------
             Orbital Energies (a.u.) and Symmetries
 --------------------------------------------------------------
 
 Alpha MOs, Restricted
 -- Occupied --                  
-18.977 -10.141 -10.114 -10.114 -10.096 -10.086 -10.086  -0.881
  1 A1    2 A1    3 A1    1 B1    4 A1    2 B1    5 A1    6 A1                 
 -0.756  -0.660  -0.625  -0.511  -0.490  -0.416  -0.357  -0.357
  7 A1    3 B1    8 A1    4 B1    9 A1   10 A1    5 B1   11 A1                 
 -0.322  -0.298  -0.288  -0.255  -0.244  -0.216  -0.154  -0.109
  6 B1   12 A1    1 B2   13 A1    7 B1    2 B2    1 A2    8 B1                 
 -0.069
  3 B2                                                                         
 -- Virtual --                   
  0.243   0.261   0.274   0.286   0.305   0.330   0.335   0.425
  2 A2   14 A1    4 B2    9 B1   15 A1   16 A1   10 B1    5 B2                 
  0.442   0.467   0.471   0.503   0.504   0.525   0.564   0.579
 17 A1   18 A1   11 B1   19 A1   12 B1    6 B2    3 A2   20 A1                 
  0.585   0.596   0.606   0.621   0.623   0.636   0.653   0.656
  7 B2   13 B1   21 A1   14 B1   22 A1   23 A1   15 B1    4 A2                 
  0.658   0.673   0.677   0.716   0.716   0.720   0.738   0.745
  8 B2   24 A1   16 B1    9 B2   25 A1   17 B1   26 A1   10 B2                 
  0.755   0.767   0.790   0.802   0.835   0.841   0.892   0.906
 27 A1   18 B1   28 A1   19 B1   29 A1   20 B1   30 A1    5 A2                 
  0.928   0.955   0.961   0.967   0.996   1.012   1.013   1.021
  6 A2   11 B2   21 B1   31 A1   22 B1   12 B2    7 A2   32 A1                 
  1.088   1.092   1.097   1.103   1.146   1.186   1.195   1.223
 13 B2   33 A1   23 B1   34 A1   24 B1   25 B1   35 A1   14 B2                 
  1.244   1.258   1.272   1.302   1.331   1.340   1.341   1.359
  8 A2   15 B2   36 A1   26 B1   16 B2    9 A2   37 A1   38 A1                 
  1.424   1.440   1.441   1.489   1.497   1.504   1.511   1.534
 39 A1   27 B1   28 B1   40 A1   17 B2   10 A2   29 B1   30 B1                 
  1.572   1.581   1.584   1.596   1.609   1.634   1.642   1.650
 18 B2   41 A1   31 B1   42 A1   32 B1   11 A2   43 A1   33 B1                 
  1.699   1.707   1.755   1.756   1.759   1.818   1.971   1.989
 44 A1   45 A1   12 A2   34 B1   19 B2   46 A1   47 A1   35 B1                 
  2.070   2.080   2.146   2.164   2.220   2.248   2.254   2.300
 48 A1   13 A2   36 B1   49 A1   37 B1   20 B2   50 A1   21 B2                 
  2.383   2.385   2.389   2.397   2.438   2.446   2.481   2.491
 38 B1   51 A1   14 A2   52 A1   22 B2   39 B1   23 B2   15 A2                 
  2.518   2.599   2.647   2.655   2.675   2.682   2.726   2.762
 53 A1   16 A2   54 A1   55 A1   40 B1   56 A1   41 B1   57 A1                 
  2.769   2.771   2.792   2.868   2.879   2.921   2.934   2.937
 42 B1   24 B2   25 B2   43 B1   44 B1   17 A2   58 A1   26 B2                 
  2.946   2.979   2.986   2.994   3.007   3.044   3.078   3.092
 27 B2   28 B2   59 A1   45 B1   18 A2   19 A2   60 A1   61 A1                 
  3.093   3.100   3.161   3.186   3.196   3.200   3.208   3.238
 29 B2   46 B1   30 B2   20 A2   31 B2   47 B1   62 A1   48 B1                 
  3.275   3.290   3.318   3.328   3.328   3.334   3.336   3.349
 63 A1   49 B1   64 A1   50 B1   21 A2   65 A1   51 B1   66 A1                 
  3.351   3.359   3.400   3.401   3.416   3.435   3.457   3.548
 32 B2   67 A1   22 A2   68 A1   23 A2   33 B2   52 B1   34 B2                 
  3.561   3.570   3.607   3.617   3.626   3.629   3.633   3.655
 69 A1   24 A2   53 B1   35 B2   70 A1   25 A2   54 B1   36 B2                 
  3.663   3.689   3.704   3.846   3.867   3.873   3.881   3.932
 55 B1   71 A1   26 A2   72 A1   56 B1   73 A1   37 B2   57 B1                 
  3.934   3.952   3.992   4.010   4.019   4.051   4.064   4.068
 27 A2   74 A1   58 B1   38 B2   28 A2   75 A1   59 B1   39 B2                 
  4.071   4.081   4.121   4.131   4.144   4.146   4.206   4.247
 29 A2   76 A1   40 B2   60 B1   77 A1   30 A2   78 A1   41 B2                 
  4.293   4.305   4.311   4.340   4.345   4.396   4.407   4.424
 61 B1   31 A2   79 A1   62 B1   80 A1   63 B1   42 B2   81 A1                 
  4.435   4.449   4.467   4.474   4.513   4.520   4.589   4.593
 64 B1   43 B2   32 A2   82 A1   44 B2   65 B1   66 B1   83 A1                 
  4.613   4.626   4.632   4.665   4.711   4.819   4.827   4.902
 33 A2   45 B2   84 A1   85 A1   67 B1   86 A1   68 B1   87 A1                 
  4.938   4.945   4.964   4.966   5.036   5.038   5.071   5.135
 46 B2   47 B2   34 A2   69 B1   70 B1   35 A2   88 A1   48 B2                 
  5.181   5.215   5.239   5.272   5.292   5.344   5.388   5.430
 89 A1   71 B1   90 A1   72 B1   36 A2   91 A1   73 B1   74 B1                 
  5.445   5.528   5.546   5.598   5.715   5.742   5.760   5.906
 92 A1   49 B2   75 B1   50 B2   76 B1   93 A1   94 A1   37 A2                 
  5.959   6.034   6.079   6.107   6.237   6.306   6.472   6.491
 95 A1   96 A1   77 B1   78 B1   79 B1   97 A1   51 B2   98 A1                 
  6.706   6.713   6.762   6.948   7.168   7.265   7.350   7.490
 80 B1   38 A2   99 A1  100 A1   52 B2   81 B1  101 A1   82 B1                 
  8.942  11.907  12.217  12.714  12.875  13.287  15.461
102 A1  103 A1   83 B1  104 A1  105 A1   84 B1  106 A1                         
 
 Beta MOs, Restricted
 -- Occupied --                  
-18.977 -10.141 -10.114 -10.114 -10.096 -10.086 -10.086  -0.881
  1 A1    2 A1    3 A1    1 B1    4 A1    2 B1    5 A1    6 A1                 
 -0.756  -0.660  -0.625  -0.511  -0.490  -0.416  -0.357  -0.357
  7 A1    3 B1    8 A1    4 B1    9 A1   10 A1    5 B1   11 A1                 
 -0.322  -0.298  -0.288  -0.255  -0.244  -0.216  -0.154  -0.109
  6 B1   12 A1    1 B2   13 A1    7 B1    2 B2    1 A2    8 B1                 
 -0.069
  3 B2                                                                         
 -- Virtual --                   
  0.243   0.261   0.274   0.286   0.305   0.330   0.335   0.425
  2 A2   14 A1    4 B2    9 B1   15 A1   16 A1   10 B1    5 B2                 
  0.442   0.467   0.471   0.503   0.504   0.525   0.564   0.579
 17 A1   18 A1   11 B1   19 A1   12 B1    6 B2    3 A2   20 A1                 
  0.585   0.596   0.606   0.621   0.623   0.636   0.653   0.656
  7 B2   13 B1   21 A1   14 B1   22 A1   23 A1   15 B1    4 A2                 
  0.658   0.673   0.677   0.716   0.716   0.720   0.738   0.745
  8 B2   24 A1   16 B1    9 B2   25 A1   17 B1   26 A1   10 B2                 
  0.755   0.767   0.790   0.802   0.835   0.841   0.892   0.906
 27 A1   18 B1   28 A1   19 B1   29 A1   20 B1   30 A1    5 A2                 
  0.928   0.955   0.961   0.967   0.996   1.012   1.013   1.021
  6 A2   11 B2   21 B1   31 A1   22 B1   12 B2    7 A2   32 A1                 
  1.088   1.092   1.097   1.103   1.146   1.186   1.195   1.223
 13 B2   33 A1   23 B1   34 A1   24 B1   25 B1   35 A1   14 B2                 
  1.244   1.258   1.272   1.302   1.331   1.340   1.341   1.359
  8 A2   15 B2   36 A1   26 B1   16 B2    9 A2   37 A1   38 A1                 
  1.424   1.440   1.441   1.489   1.497   1.504   1.511   1.534
 39 A1   27 B1   28 B1   40 A1   17 B2   10 A2   29 B1   30 B1                 
  1.572   1.581   1.584   1.596   1.609   1.634   1.642   1.650
 18 B2   41 A1   31 B1   42 A1   32 B1   11 A2   43 A1   33 B1                 
  1.699   1.707   1.755   1.756   1.759   1.818   1.971   1.989
 44 A1   45 A1   12 A2   34 B1   19 B2   46 A1   47 A1   35 B1                 
  2.070   2.080   2.146   2.164   2.220   2.248   2.254   2.300
 48 A1   13 A2   36 B1   49 A1   37 B1   20 B2   50 A1   21 B2                 
  2.383   2.385   2.389   2.397   2.438   2.446   2.481   2.491
 38 B1   51 A1   14 A2   52 A1   22 B2   39 B1   23 B2   15 A2                 
  2.518   2.599   2.647   2.655   2.675   2.682   2.726   2.762
 53 A1   16 A2   54 A1   55 A1   40 B1   56 A1   41 B1   57 A1                 
  2.769   2.771   2.792   2.868   2.879   2.921   2.934   2.937
 42 B1   24 B2   25 B2   43 B1   44 B1   17 A2   58 A1   26 B2                 
  2.946   2.979   2.986   2.994   3.007   3.044   3.078   3.092
 27 B2   28 B2   59 A1   45 B1   18 A2   19 A2   60 A1   61 A1                 
  3.093   3.100   3.161   3.186   3.196   3.200   3.208   3.238
 29 B2   46 B1   30 B2   20 A2   31 B2   47 B1   62 A1   48 B1                 
  3.275   3.290   3.318   3.328   3.328   3.334   3.336   3.349
 63 A1   49 B1   64 A1   50 B1   21 A2   65 A1   51 B1   66 A1                 
  3.351   3.359   3.400   3.401   3.416   3.435   3.457   3.548
 32 B2   67 A1   22 A2   68 A1   23 A2   33 B2   52 B1   34 B2                 
  3.561   3.570   3.607   3.617   3.626   3.629   3.633   3.655
 69 A1   24 A2   53 B1   35 B2   70 A1   25 A2   54 B1   36 B2                 
  3.663   3.689   3.704   3.846   3.867   3.873   3.881   3.932
 55 B1   71 A1   26 A2   72 A1   56 B1   73 A1   37 B2   57 B1                 
  3.934   3.952   3.992   4.010   4.019   4.051   4.064   4.068
 27 A2   74 A1   58 B1   38 B2   28 A2   75 A1   59 B1   39 B2                 
  4.071   4.081   4.121   4.131   4.144   4.146   4.206   4.247
 29 A2   76 A1   40 B2   60 B1   77 A1   30 A2   78 A1   41 B2                 
  4.293   4.305   4.311   4.340   4.345   4.396   4.407   4.424
 61 B1   31 A2   79 A1   62 B1   80 A1   63 B1   42 B2   81 A1                 
  4.435   4.449   4.467   4.474   4.513   4.520   4.589   4.593
 64 B1   43 B2   32 A2   82 A1   44 B2   65 B1   66 B1   83 A1                 
  4.613   4.626   4.632   4.665   4.711   4.819   4.827   4.902
 33 A2   45 B2   84 A1   85 A1   67 B1   86 A1   68 B1   87 A1                 
  4.938   4.945   4.964   4.966   5.036   5.038   5.071   5.135
 46 B2   47 B2   34 A2   69 B1   70 B1   35 A2   88 A1   48 B2                 
  5.181   5.215   5.239   5.272   5.292   5.344   5.388   5.430
 89 A1   71 B1   90 A1   72 B1   36 A2   91 A1   73 B1   74 B1                 
  5.445   5.528   5.546   5.598   5.715   5.742   5.760   5.906
 92 A1   49 B2   75 B1   50 B2   76 B1   93 A1   94 A1   37 A2                 
  5.959   6.034   6.079   6.107   6.237   6.306   6.472   6.491
 95 A1   96 A1   77 B1   78 B1   79 B1   97 A1   51 B2   98 A1                 
  6.706   6.713   6.762   6.948   7.168   7.265   7.350   7.490
 80 B1   38 A2   99 A1  100 A1   52 B2   81 B1  101 A1   82 B1                 
  8.942  11.907  12.217  12.714  12.875  13.287  15.461
102 A1  103 A1   83 B1  104 A1  105 A1   84 B1  106 A1                         
 --------------------------------------------------------------
 
          Ground-State Mulliken Net Atomic Charges

     Atom                 Charge (a.u.)
  ----------------------------------------
      1 C                    -0.257232
      2 C                    -0.125203
      3 C                    -0.241004
      4 C                    -0.125203
      5 C                    -0.257232
      6 C                     0.196693
      7 O                    -0.523755
      8 H                     0.065394
      9 H                     0.068230
     10 H                     0.065688
     11 H                     0.068230
     12 H                     0.065394
  ----------------------------------------
  Sum of atomic charges =    -1.000000

 -----------------------------------------------------------------
                    Cartesian Multipole Moments
 -----------------------------------------------------------------
    Charge (ESU x 10^10)
                -4.8032
    Dipole Moment (Debye)
         X      -0.0000      Y      -0.0000      Z      -4.1887
       Tot       4.1887
    Quadrupole Moments (Debye-Ang)
        XX     -45.1810     XY      -0.0000     YY     -46.9546
        XZ      -0.0000     YZ      -0.0000     ZZ     -62.7514
    Octopole Moments (Debye-Ang^2)
       XXX       0.0000    XXY      -0.0000    XYY      -0.0000
       YYY      -0.0000    XXZ       2.8647    XYZ      -0.0000
       YYZ       6.1782    XZZ       0.0000    YZZ      -0.0000
       ZZZ     -28.2518
    Hexadecapole Moments (Debye-Ang^3)
      XXXX    -325.4432   XXXY       0.0000   XXYY     -70.4323
      XYYY       0.0000   YYYY     -54.7414   XXXZ      -0.0000
      XXYZ      -0.0000   XYYZ       0.0000   YYYZ      -0.0000
      XXZZ    -146.1152   XYZZ       0.0000   YYZZ    -107.8346
      XZZZ      -0.0000   YZZZ      -0.0000   ZZZZ    -659.8977
 -----------------------------------------------------------------
 Calculating MO derivatives via CPSCF
    1     0    39    0.0323903  
    2     0    39    0.0102689  
    3     0    39    0.0025169  
    4     0    39    0.0005477  
    5     1    38    0.0000802  
    6    29    10    0.0000085  
    7    39     0    0.0000009  Converged
 Time for AOints: 145.3 s (CPU) 73.2 s (wall)
 ------------------------------------------------------------------------------
                     AOints        : Timing summary (seconds)
 ------------------------------------------------------------------------------
     job step          cpu (% of tot)      sys (% of tot)     wall (% of tot)
 ------------------------------------------------------------------------------
  AOints            0.1453E+03 ( 6.3)   0.3000E-05 ( 2.5)   0.7321E+02 ( 6.3)
 ------------------------------------------------------------------------------
   Grand Totals     0.2307E+04          0.1210E-03          0.1162E+04
 ------------------------------------------------------------------------------
 Polarizability Matrix (a.u.)
            1           2           3
    1 -86.1010071   0.0000000   0.0000000
    2   0.0000000 -38.6233215   0.0000000
    3   0.0000000   0.0000000-100.6475864
 Calculating analytic Hessian of the SCF energy
atom: 0 element: 6
atom: 1 element: 6
atom: 2 element: 6
atom: 3 element: 6
atom: 4 element: 6
atom: 5 element: 6
atom: 6 element: 8
atom: 7 element: 1
atom: 8 element: 1
atom: 9 element: 1
atom: 10 element: 1
atom: 11 element: 1
 
 Direct stationary perturbation theory relativistic correction:
 
 rels  =       0.081378915958
 relv  =      -0.387744813473
 rel2e =       0.000000000000
 E_rel =      -0.306365897515
 
 Hessian of the SCF Energy
            1           2           3           4           5           6
    1   0.6371604   0.0000000  -0.0581059  -0.1276445  -0.0000000   0.0311171
    2   0.0000000   0.1126613  -0.0000000  -0.0000000  -0.0530470   0.0000000
    3  -0.0581059  -0.0000000   0.7218568  -0.0286715   0.0000000  -0.3724077
    4  -0.1276445  -0.0000000  -0.0286715   0.6977908  -0.0000000   0.0185725
    5  -0.0000000  -0.0530470   0.0000000  -0.0000000   0.1351082  -0.0000000
    6   0.0311171   0.0000000  -0.3724077   0.0185725  -0.0000000   0.6971360
    7   0.0224598  -0.0000000   0.0711653  -0.2708121   0.0000000   0.0617404
    8   0.0000000   0.0090153   0.0000000   0.0000000  -0.0553446  -0.0000000
    9   0.0254180   0.0000000  -0.0340128   0.1214582  -0.0000000  -0.1715686
   10  -0.0131087   0.0000000  -0.0315215  -0.0648336   0.0000000   0.0240936
   11  -0.0000000  -0.0010630  -0.0000000   0.0000000   0.0059952   0.0000000
   12  -0.0071511  -0.0000000  -0.0383447  -0.0240936   0.0000000   0.0491661
   13  -0.0319511   0.0000000  -0.0037789  -0.0131087  -0.0000000   0.0071511
   14   0.0000000   0.0049418   0.0000000  -0.0000000  -0.0010630  -0.0000000
   15   0.0037789   0.0000000   0.0496390   0.0315215  -0.0000000  -0.0383447
   16  -0.2231209  -0.0000000  -0.0153074   0.0464311   0.0000000  -0.0656041
   17  -0.0000000  -0.0750520  -0.0000000   0.0000000  -0.0025075   0.0000000
   18  -0.0538623  -0.0000000  -0.1326621  -0.0260374   0.0000000  -0.0261674
   19   0.0069727  -0.0000000  -0.0551569  -0.0132826   0.0000000   0.0112801
   20   0.0000000   0.0200306   0.0000000   0.0000000   0.0056583  -0.0000000
   21  -0.0305868   0.0000000  -0.0611462  -0.0050207  -0.0000000   0.0096079
   22  -0.2637454  -0.0000000   0.1150176   0.0021676  -0.0000000  -0.0033083
   23  -0.0000000  -0.0314251   0.0000000  -0.0000000  -0.0000054   0.0000000
   24   0.1152383   0.0000000  -0.1212457   0.0296378  -0.0000000  -0.0106969
   25   0.0007471   0.0000000   0.0014754  -0.2575285   0.0000000  -0.1101679
   26  -0.0000000   0.0040242   0.0000000   0.0000000  -0.0373217  -0.0000000
   27  -0.0316021  -0.0000000  -0.0107962  -0.1102993  -0.0000000  -0.1228448
   28  -0.0044409   0.0000000   0.0012004   0.0050435  -0.0000000   0.0284374
   29   0.0000000   0.0058559  -0.0000000  -0.0000000  -0.0032980   0.0000000
   30   0.0036102   0.0000000   0.0008438  -0.0049971  -0.0000000  -0.0127725
   31   0.0009379   0.0000000  -0.0007290  -0.0040183  -0.0000000  -0.0050415
   32   0.0000000  -0.0007561   0.0000000  -0.0000000   0.0061888   0.0000000
   33  -0.0002884  -0.0000000  -0.0005237  -0.0028953   0.0000000  -0.0006211
   34  -0.0042663   0.0000000   0.0044124  -0.0002046   0.0000000   0.0017296
   35  -0.0000000   0.0048141  -0.0000000   0.0000000  -0.0003633  -0.0000000
   36   0.0024342  -0.0000000  -0.0012004   0.0008251  -0.0000000  -0.0004863
            7           8           9          10          11          12
    1   0.0224598   0.0000000   0.0254180  -0.0131087  -0.0000000  -0.0071511
    2  -0.0000000   0.0090153   0.0000000   0.0000000  -0.0010630  -0.0000000
    3   0.0711653   0.0000000  -0.0340128  -0.0315215  -0.0000000  -0.0383447
    4  -0.2708121   0.0000000   0.1214582  -0.0648336   0.0000000  -0.0240936
    5   0.0000000  -0.0553446  -0.0000000   0.0000000   0.0059952   0.0000000
    6   0.0617404  -0.0000000  -0.1715686   0.0240936   0.0000000   0.0491661
    7   0.6408956   0.0000000   0.0000000  -0.2708121  -0.0000000  -0.0617403
    8   0.0000000   0.0963899   0.0000000  -0.0000000  -0.0553446  -0.0000000
    9   0.0000000   0.0000000   0.7314881  -0.1214582  -0.0000000  -0.1715686
   10  -0.2708121  -0.0000000  -0.1214582   0.6977908  -0.0000000  -0.0185725
   11  -0.0000000  -0.0553446  -0.0000000  -0.0000000   0.1351082  -0.0000000
   12  -0.0617403  -0.0000000  -0.1715686  -0.0185725  -0.0000000   0.6971360
   13   0.0224598  -0.0000000  -0.0254180  -0.1276445   0.0000000  -0.0311171
   14   0.0000000   0.0090153   0.0000000   0.0000000  -0.0530470   0.0000000
   15  -0.0711653   0.0000000  -0.0340128   0.0286715   0.0000000  -0.3724077
   16  -0.0702803   0.0000000  -0.0000000   0.0464311  -0.0000000   0.0656041
   17   0.0000000  -0.0052079  -0.0000000  -0.0000000  -0.0025075   0.0000000
   18   0.0000000  -0.0000000   0.0105462   0.0260374   0.0000000  -0.0261674
   19   0.0151281  -0.0000000   0.0000000  -0.0132826  -0.0000000  -0.0112801
   20   0.0000000  -0.0007770   0.0000000   0.0000000   0.0056583  -0.0000000
   21   0.0000000   0.0000000  -0.0111712   0.0050207  -0.0000000   0.0096079
   22   0.0027082   0.0000000  -0.0001842  -0.0002046  -0.0000000  -0.0017296
   23  -0.0000000   0.0076305   0.0000000  -0.0000000  -0.0003633  -0.0000000
   24  -0.0020790   0.0000000  -0.0050232  -0.0008251  -0.0000000  -0.0004863
   25  -0.0186385   0.0000000  -0.0186539  -0.0040183   0.0000000   0.0050415
   26   0.0000000   0.0021122   0.0000000  -0.0000000   0.0061888   0.0000000
   27   0.0137245  -0.0000000   0.0112805   0.0028953   0.0000000  -0.0006211
   28  -0.0571782  -0.0000000  -0.0000000   0.0050435   0.0000000  -0.0284374
   29  -0.0000000  -0.0172318   0.0000000  -0.0000000  -0.0032980  -0.0000000
   30  -0.0000000   0.0000000  -0.3322147   0.0049971  -0.0000000  -0.0127725
   31  -0.0186385   0.0000000   0.0186539  -0.2575285  -0.0000000   0.1101679
   32  -0.0000000   0.0021122   0.0000000  -0.0000000  -0.0373217  -0.0000000
   33  -0.0137245   0.0000000   0.0112805   0.1102993   0.0000000  -0.1228448
   34   0.0027082  -0.0000000   0.0001842   0.0021676   0.0000000   0.0033083
   35   0.0000000   0.0076305   0.0000000   0.0000000  -0.0000054   0.0000000
   36   0.0020790   0.0000000  -0.0050232  -0.0296378  -0.0000000  -0.0106969
           13          14          15          16          17          18
    1  -0.0319511   0.0000000   0.0037789  -0.2231209  -0.0000000  -0.0538623
    2   0.0000000   0.0049418   0.0000000  -0.0000000  -0.0750520  -0.0000000
    3  -0.0037789   0.0000000   0.0496390  -0.0153074  -0.0000000  -0.1326621
    4  -0.0131087  -0.0000000   0.0315215   0.0464311   0.0000000  -0.0260374
    5  -0.0000000  -0.0010630  -0.0000000   0.0000000  -0.0025075   0.0000000
    6   0.0071511  -0.0000000  -0.0383447  -0.0656041   0.0000000  -0.0261674
    7   0.0224598   0.0000000  -0.0711653  -0.0702803   0.0000000   0.0000000
    8  -0.0000000   0.0090153   0.0000000   0.0000000  -0.0052079  -0.0000000
    9  -0.0254180   0.0000000  -0.0340128  -0.0000000  -0.0000000   0.0105462
   10  -0.1276445   0.0000000   0.0286715   0.0464311  -0.0000000   0.0260374
   11   0.0000000  -0.0530470   0.0000000  -0.0000000  -0.0025075   0.0000000
   12  -0.0311171   0.0000000  -0.3724077   0.0656041   0.0000000  -0.0261674
   13   0.6371604  -0.0000000   0.0581059  -0.2231209   0.0000000   0.0538623
   14  -0.0000000   0.1126613  -0.0000000   0.0000000  -0.0750520   0.0000000
   15   0.0581059  -0.0000000   0.7218568   0.0153074  -0.0000000  -0.1326621
   16  -0.2231209   0.0000000   0.0153074   0.5538721  -0.0000000   0.0000000
   17   0.0000000  -0.0750520  -0.0000000  -0.0000000   0.2053850   0.0000000
   18   0.0538623   0.0000000  -0.1326621   0.0000000   0.0000000   0.8266852
   19   0.0069727   0.0000000   0.0551569  -0.0958126   0.0000000  -0.0000000
   20  -0.0000000   0.0200306  -0.0000000   0.0000000  -0.0736255   0.0000000
   21   0.0305868   0.0000000  -0.0611462   0.0000000  -0.0000000  -0.5313303
   22  -0.0042664   0.0000000  -0.0044124  -0.0190108  -0.0000000   0.0229300
   23   0.0000000   0.0048141   0.0000000  -0.0000000   0.0052940  -0.0000000
   24  -0.0024343   0.0000000  -0.0012004  -0.0134515   0.0000000   0.0090748
   25   0.0009379  -0.0000000   0.0007290   0.0026822  -0.0000000   0.0012659
   26  -0.0000000  -0.0007561  -0.0000000   0.0000000   0.0094838   0.0000000
   27   0.0002884  -0.0000000  -0.0005237   0.0040048   0.0000000  -0.0037396
   28  -0.0044409  -0.0000000  -0.0012004  -0.0017424  -0.0000000  -0.0000000
   29   0.0000000   0.0058559   0.0000000  -0.0000000  -0.0009882   0.0000000
   30  -0.0036101   0.0000000   0.0008438  -0.0000000  -0.0000000   0.0010873
   31   0.0007471  -0.0000000  -0.0014754   0.0026822  -0.0000000  -0.0012659
   32  -0.0000000   0.0040242   0.0000000  -0.0000000   0.0094838  -0.0000000
   33   0.0316021   0.0000000  -0.0107961  -0.0040048  -0.0000000  -0.0037396
   34  -0.2637454   0.0000000  -0.1150176  -0.0190108   0.0000000  -0.0229300
   35   0.0000000  -0.0314251  -0.0000000   0.0000000   0.0052940   0.0000000
   36  -0.1152383   0.0000000  -0.1212457   0.0134515  -0.0000000   0.0090748
           19          20          21          22          23          24
    1   0.0069727   0.0000000  -0.0305868  -0.2637454  -0.0000000   0.1152383
    2  -0.0000000   0.0200306   0.0000000  -0.0000000  -0.0314251   0.0000000
    3  -0.0551569   0.0000000  -0.0611462   0.1150176   0.0000000  -0.1212457
    4  -0.0132826   0.0000000  -0.0050207   0.0021676  -0.0000000   0.0296378
    5   0.0000000   0.0056583  -0.0000000  -0.0000000  -0.0000054  -0.0000000
    6   0.0112801  -0.0000000   0.0096079  -0.0033083   0.0000000  -0.0106969
    7   0.0151281   0.0000000   0.0000000   0.0027082  -0.0000000  -0.0020790
    8  -0.0000000  -0.0007770   0.0000000   0.0000000   0.0076305   0.0000000
    9   0.0000000   0.0000000  -0.0111712  -0.0001842   0.0000000  -0.0050232
   10  -0.0132826   0.0000000   0.0050207  -0.0002046  -0.0000000  -0.0008251
   11  -0.0000000   0.0056583  -0.0000000  -0.0000000  -0.0003633  -0.0000000
   12  -0.0112801  -0.0000000   0.0096079  -0.0017296  -0.0000000  -0.0004863
   13   0.0069727  -0.0000000   0.0305868  -0.0042664   0.0000000  -0.0024343
   14   0.0000000   0.0200306   0.0000000   0.0000000   0.0048141   0.0000000
   15   0.0551569  -0.0000000  -0.0611462  -0.0044124   0.0000000  -0.0012004
   16  -0.0958126   0.0000000   0.0000000  -0.0190108  -0.0000000  -0.0134515
   17   0.0000000  -0.0736255  -0.0000000  -0.0000000   0.0052940   0.0000000
   18  -0.0000000   0.0000000  -0.5313303   0.0229300  -0.0000000   0.0090748
   19   0.0843935  -0.0000000   0.0000000   0.0045663   0.0000000   0.0016258
   20  -0.0000000   0.0337580   0.0000000  -0.0000000  -0.0037439   0.0000000
   21   0.0000000   0.0000000   0.6464421  -0.0023180   0.0000000   0.0019530
   22   0.0045663  -0.0000000  -0.0023180   0.2782613   0.0000000  -0.1278344
   23   0.0000000  -0.0037439   0.0000000   0.0000000   0.0236377  -0.0000000
   24   0.0016258   0.0000000   0.0019530  -0.1278344  -0.0000000   0.1273006
   25  -0.0005118  -0.0000000  -0.0012465   0.0013761   0.0000000  -0.0006062
   26  -0.0000000  -0.0013552  -0.0000000  -0.0000000  -0.0049890   0.0000000
   27  -0.0018462   0.0000000  -0.0020870   0.0009222  -0.0000000   0.0007047
   28   0.0008019  -0.0000000   0.0000000  -0.0000384   0.0000000   0.0013745
   29   0.0000000  -0.0005351   0.0000000   0.0000000   0.0012038   0.0000000
   30  -0.0000000   0.0000000  -0.0005960  -0.0000381   0.0000000  -0.0009124
   31  -0.0005118  -0.0000000   0.0012465  -0.0000576   0.0000000   0.0001616
   32   0.0000000  -0.0013552   0.0000000   0.0000000  -0.0009337  -0.0000000
   33   0.0018462   0.0000000  -0.0020870   0.0001476  -0.0000000   0.0000392
   34   0.0045663  -0.0000000   0.0023180  -0.0017564   0.0000000  -0.0008075
   35  -0.0000000  -0.0037439  -0.0000000  -0.0000000  -0.0011198   0.0000000
   36  -0.0016258   0.0000000   0.0019530   0.0008075   0.0000000   0.0004926
           25          26          27          28          29          30
    1   0.0007471  -0.0000000  -0.0316021  -0.0044409   0.0000000   0.0036102
    2   0.0000000   0.0040242  -0.0000000   0.0000000   0.0058559   0.0000000
    3   0.0014754   0.0000000  -0.0107962   0.0012004  -0.0000000   0.0008438
    4  -0.2575285   0.0000000  -0.1102993   0.0050435  -0.0000000  -0.0049971
    5   0.0000000  -0.0373217  -0.0000000  -0.0000000  -0.0032980  -0.0000000
    6  -0.1101679  -0.0000000  -0.1228448   0.0284374   0.0000000  -0.0127725
    7  -0.0186385   0.0000000   0.0137245  -0.0571782  -0.0000000  -0.0000000
    8   0.0000000   0.0021122  -0.0000000  -0.0000000  -0.0172318   0.0000000
    9  -0.0186539   0.0000000   0.0112805  -0.0000000   0.0000000  -0.3322147
   10  -0.0040183  -0.0000000   0.0028953   0.0050435  -0.0000000   0.0049971
   11   0.0000000   0.0061888   0.0000000   0.0000000  -0.0032980  -0.0000000
   12   0.0050415   0.0000000  -0.0006211  -0.0284374  -0.0000000  -0.0127725
   13   0.0009379  -0.0000000   0.0002884  -0.0044409   0.0000000  -0.0036101
   14  -0.0000000  -0.0007561  -0.0000000  -0.0000000   0.0058559   0.0000000
   15   0.0007290  -0.0000000  -0.0005237  -0.0012004   0.0000000   0.0008438
   16   0.0026822   0.0000000   0.0040048  -0.0017424  -0.0000000  -0.0000000
   17  -0.0000000   0.0094838   0.0000000  -0.0000000  -0.0009882  -0.0000000
   18   0.0012659   0.0000000  -0.0037396  -0.0000000   0.0000000   0.0010873
   19  -0.0005118  -0.0000000  -0.0018462   0.0008019   0.0000000  -0.0000000
   20  -0.0000000  -0.0013552   0.0000000  -0.0000000  -0.0005351   0.0000000
   21  -0.0012465  -0.0000000  -0.0020870   0.0000000   0.0000000  -0.0005960
   22   0.0013761  -0.0000000   0.0009222  -0.0000384   0.0000000  -0.0000381
   23   0.0000000  -0.0049890  -0.0000000   0.0000000   0.0012038   0.0000000
   24  -0.0006062   0.0000000   0.0007047   0.0013745   0.0000000  -0.0009124
   25   0.2756995  -0.0000000   0.1221494   0.0009375   0.0000000   0.0008882
   26  -0.0000000   0.0266444   0.0000000  -0.0000000  -0.0034631   0.0000000
   27   0.1221494   0.0000000   0.1272906  -0.0008025  -0.0000000   0.0008876
   28   0.0009375  -0.0000000  -0.0008025   0.0551151   0.0000000  -0.0000000
   29   0.0000000  -0.0034631  -0.0000000   0.0000000   0.0181579  -0.0000000
   30   0.0008882   0.0000000   0.0008876  -0.0000000  -0.0000000   0.3556305
   31  -0.0016256  -0.0000000   0.0007132   0.0009375   0.0000000  -0.0008882
   32   0.0000000   0.0003655  -0.0000000   0.0000000  -0.0034631   0.0000000
   33  -0.0007132   0.0000000   0.0004098   0.0008025  -0.0000000   0.0008876
   34  -0.0000576  -0.0000000  -0.0001476  -0.0000384   0.0000000   0.0000381
   35  -0.0000000  -0.0009337   0.0000000  -0.0000000   0.0012038   0.0000000
   36  -0.0001616   0.0000000   0.0000392  -0.0013745   0.0000000  -0.0009124
           31          32          33          34          35          36
    1   0.0009379   0.0000000  -0.0002884  -0.0042663  -0.0000000   0.0024342
    2   0.0000000  -0.0007561  -0.0000000   0.0000000   0.0048141  -0.0000000
    3  -0.0007290   0.0000000  -0.0005237   0.0044124  -0.0000000  -0.0012004
    4  -0.0040183  -0.0000000  -0.0028953  -0.0002046   0.0000000   0.0008251
    5  -0.0000000   0.0061888   0.0000000   0.0000000  -0.0003633  -0.0000000
    6  -0.0050415   0.0000000  -0.0006211   0.0017296  -0.0000000  -0.0004863
    7  -0.0186385  -0.0000000  -0.0137245   0.0027082   0.0000000   0.0020790
    8   0.0000000   0.0021122   0.0000000  -0.0000000   0.0076305   0.0000000
    9   0.0186539   0.0000000   0.0112805   0.0001842   0.0000000  -0.0050232
   10  -0.2575285  -0.0000000   0.1102993   0.0021676   0.0000000  -0.0296378
   11  -0.0000000  -0.0373217   0.0000000   0.0000000  -0.0000054  -0.0000000
   12   0.1101679  -0.0000000  -0.1228448   0.0033083   0.0000000  -0.0106969
   13   0.0007471  -0.0000000   0.0316021  -0.2637454   0.0000000  -0.1152383
   14  -0.0000000   0.0040242   0.0000000   0.0000000  -0.0314251   0.0000000
   15  -0.0014754   0.0000000  -0.0107961  -0.1150176  -0.0000000  -0.1212457
   16   0.0026822  -0.0000000  -0.0040048  -0.0190108   0.0000000   0.0134515
   17  -0.0000000   0.0094838  -0.0000000   0.0000000   0.0052940  -0.0000000
   18  -0.0012659  -0.0000000  -0.0037396  -0.0229300   0.0000000   0.0090748
   19  -0.0005118   0.0000000   0.0018462   0.0045663  -0.0000000  -0.0016258
   20  -0.0000000  -0.0013552   0.0000000  -0.0000000  -0.0037439   0.0000000
   21   0.0012465   0.0000000  -0.0020870   0.0023180  -0.0000000   0.0019530
   22  -0.0000576   0.0000000   0.0001476  -0.0017564  -0.0000000   0.0008075
   23   0.0000000  -0.0009337  -0.0000000   0.0000000  -0.0011198   0.0000000
   24   0.0001616  -0.0000000   0.0000392  -0.0008075   0.0000000   0.0004926
   25  -0.0016256   0.0000000  -0.0007132  -0.0000576  -0.0000000  -0.0001616
   26  -0.0000000   0.0003655   0.0000000  -0.0000000  -0.0009337   0.0000000
   27   0.0007132  -0.0000000   0.0004098  -0.0001476   0.0000000   0.0000392
   28   0.0009375   0.0000000   0.0008025  -0.0000384  -0.0000000  -0.0013745
   29   0.0000000  -0.0034631  -0.0000000   0.0000000   0.0012038   0.0000000
   30  -0.0008882   0.0000000   0.0008876   0.0000381   0.0000000  -0.0009124
   31   0.2756995   0.0000000  -0.1221494   0.0013761  -0.0000000   0.0006062
   32   0.0000000   0.0266444  -0.0000000   0.0000000  -0.0049890  -0.0000000
   33  -0.1221494  -0.0000000   0.1272906  -0.0009222   0.0000000   0.0007047
   34   0.0013761   0.0000000  -0.0009222   0.2782613  -0.0000000   0.1278344
   35  -0.0000000  -0.0049890   0.0000000  -0.0000000   0.0236377   0.0000000
   36   0.0006062  -0.0000000   0.0007047   0.1278344   0.0000000   0.1273006
 **********************************************************************
 **                                                                  **
 **                       VIBRATIONAL ANALYSIS                       **
 **                       --------------------                       **
 **                                                                  **
 **        VIBRATIONAL FREQUENCIES (CM**-1) AND NORMAL MODES         **
 **     FORCE CONSTANTS (mDYN/ANGSTROM) AND REDUCED MASSES (AMU)     **
 **                  INFRARED INTENSITIES (KM/MOL)                   **
 **                                                                  **
 **********************************************************************
 

 Mode:                 1                      2                      3
 Frequency:       197.75                 440.07                 453.34
 Force Cnst:      0.1185                 0.3834                 0.7099
 Red. Mass:       5.1440                 3.3599                 5.8624
 IR Active:          YES                    NO                     YES
 IR Intens:        1.546                  0.000                  1.033
 Raman Active:       YES                    YES                    YES
               X      Y      Z        X      Y      Z        X      Y      Z
 C         -0.000 -0.291 -0.000   -0.000  0.238 -0.000   -0.246 -0.000 -0.039
 C          0.000  0.002  0.000    0.000 -0.224 -0.000    0.043  0.000 -0.099
 C          0.000  0.267 -0.000    0.000  0.000 -0.000    0.097 -0.000 -0.000
 C          0.000  0.002 -0.000    0.000  0.224  0.000    0.043 -0.000  0.099
 C         -0.000 -0.291 -0.000   -0.000 -0.238  0.000   -0.246  0.000  0.039
 C         -0.000 -0.084  0.000   -0.000  0.000  0.000   -0.219  0.000 -0.000
 O          0.000  0.307  0.000    0.000 -0.000  0.000    0.417 -0.000 -0.000
 H         -0.000 -0.409 -0.000   -0.000  0.386 -0.000   -0.378 -0.000 -0.263
 H          0.000  0.046 -0.000    0.000 -0.494 -0.000    0.131  0.000 -0.259
 H         -0.000  0.565 -0.000    0.000  0.000 -0.000    0.169 -0.000 -0.000
 H          0.000  0.046  0.000    0.000  0.494  0.000    0.131 -0.000  0.259
 H         -0.000 -0.409  0.000   -0.000 -0.386  0.000   -0.378  0.000  0.263
 TransDip  -0.000 -0.040  0.000   -0.000 -0.000 -0.000   -0.033 -0.000  0.000

 Mode:                 4                      5                      6
 Frequency:       522.76                 539.26                 619.62
 Force Cnst:      0.3792                 1.3853                 1.4715
 Red. Mass:       2.3554                 8.0852                 6.5051
 IR Active:          YES                    YES                    YES
 IR Intens:       18.462                  7.537                  0.400
 Raman Active:       YES                    YES                    YES
               X      Y      Z        X      Y      Z        X      Y      Z
 C          0.000  0.047 -0.000    0.211 -0.000 -0.053   -0.145 -0.000  0.250
 C          0.000 -0.120 -0.000    0.179  0.000 -0.129    0.251  0.000  0.278
 C          0.000  0.205 -0.000   -0.000 -0.000 -0.390    0.109 -0.000 -0.000
 C         -0.000 -0.120 -0.000   -0.179  0.000 -0.129    0.251 -0.000 -0.278
 C         -0.000  0.047 -0.000   -0.211  0.000 -0.053   -0.145  0.000 -0.250
 C          0.000  0.200  0.000   -0.000 -0.000  0.321   -0.149  0.000 -0.000
 O         -0.000 -0.075  0.000    0.000  0.000  0.379   -0.115 -0.000 -0.000
 H          0.000 -0.395 -0.000    0.036  0.000 -0.340   -0.219 -0.000  0.114
 H         -0.000 -0.531  0.000    0.048  0.000  0.100    0.301  0.000  0.183
 H         -0.000 -0.050 -0.000    0.000  0.000 -0.388   -0.365  0.000 -0.000
 H         -0.000 -0.531  0.000   -0.048  0.000  0.100    0.301 -0.000 -0.183
 H         -0.000 -0.395 -0.000   -0.036  0.000 -0.340   -0.219  0.000 -0.114
 TransDip  -0.000 -0.138 -0.000    0.000  0.000 -0.088   -0.020  0.000  0.000

 Mode:                 7                      8                      9
 Frequency:       706.58                 725.97                 833.16
 Force Cnst:      0.3538                 0.8216                 2.1193
 Red. Mass:       1.2028                 2.6458                 5.1819
 IR Active:          YES                    YES                    YES
 IR Intens:       48.393                  1.111                  0.007
 Raman Active:       YES                    YES                    YES
               X      Y      Z        X      Y      Z        X      Y      Z
 C          0.000  0.022 -0.000   -0.000  0.072  0.000   -0.248 -0.000 -0.068
 C         -0.000 -0.068 -0.000   -0.000 -0.156  0.000   -0.209 -0.000 -0.162
 C         -0.000 -0.057  0.000    0.000  0.215 -0.000    0.000 -0.000  0.086
 C         -0.000 -0.068  0.000    0.000 -0.156  0.000    0.209  0.000 -0.162
 C          0.000  0.022  0.000    0.000  0.072  0.000    0.248  0.000 -0.068
 C          0.000  0.061 -0.000    0.000 -0.204 -0.000   -0.000  0.000  0.148
 O          0.000 -0.021 -0.000   -0.000  0.039 -0.000   -0.000 -0.000  0.240
 H          0.000  0.069 -0.000   -0.000  0.650 -0.000   -0.306  0.000 -0.143
 H         -0.000  0.137 -0.000    0.000  0.007  0.000   -0.054  0.000 -0.448
 H         -0.000  0.967  0.000    0.000 -0.074 -0.000    0.000 -0.000  0.076
 H         -0.000  0.137  0.000   -0.000  0.007 -0.000    0.054 -0.000 -0.448
 H          0.000  0.069  0.000    0.000  0.650 -0.000    0.306 -0.000 -0.143
 TransDip   0.000  0.223  0.000    0.000  0.034  0.000   -0.000  0.000  0.003

 Mode:                10                     11                     12
 Frequency:       837.03                 881.11                 974.37
 Force Cnst:      0.5123                 1.0958                 0.6601
 Red. Mass:       1.2411                 2.3955                 1.1800
 IR Active:          NO                     YES                    YES
 IR Intens:        0.000                 39.062                  0.014
 Raman Active:       YES                    YES                    YES
               X      Y      Z        X      Y      Z        X      Y      Z
 C         -0.000  0.077 -0.000    0.000 -0.149 -0.000   -0.000  0.043  0.000
 C         -0.000  0.068 -0.000   -0.000 -0.022  0.000    0.000 -0.074  0.000
 C          0.000  0.000  0.000    0.000  0.053  0.000   -0.000  0.031 -0.000
 C          0.000 -0.068 -0.000    0.000 -0.022  0.000   -0.000 -0.074  0.000
 C          0.000 -0.077 -0.000   -0.000 -0.149 -0.000    0.000  0.043  0.000
 C         -0.000  0.000  0.000    0.000  0.267 -0.000    0.000  0.007  0.000
 O          0.000 -0.000  0.000    0.000 -0.071 -0.000   -0.000  0.003 -0.000
 H         -0.000 -0.585 -0.000    0.000  0.542  0.000   -0.000 -0.338 -0.000
 H         -0.000 -0.384 -0.000    0.000  0.309 -0.000    0.000  0.589 -0.000
 H         -0.000 -0.000  0.000    0.000 -0.310  0.000    0.000 -0.248 -0.000
 H          0.000  0.384 -0.000    0.000  0.309  0.000   -0.000  0.589 -0.000
 H          0.000  0.585 -0.000    0.000  0.542 -0.000    0.000 -0.338  0.000
 TransDip  -0.000  0.000  0.000    0.000  0.200 -0.000    0.000 -0.004  0.000

 Mode:                13                     14                     15
 Frequency:       981.09                 989.95                1039.74
 Force Cnst:      0.7344                 2.8452                 1.4408
 Red. Mass:       1.2950                 4.9276                 2.2620
 IR Active:          NO                     YES                    YES
 IR Intens:        0.000                 39.351                 12.824
 Raman Active:       YES                    YES                    YES
               X      Y      Z        X      Y      Z        X      Y      Z
 C          0.000  0.067 -0.000    0.291  0.000 -0.111    0.014 -0.000 -0.084
 C          0.000 -0.093 -0.000   -0.183 -0.000 -0.089    0.155  0.000  0.010
 C         -0.000  0.000  0.000   -0.000  0.000  0.270    0.000  0.000  0.227
 C         -0.000  0.093 -0.000    0.183 -0.000 -0.089   -0.155 -0.000  0.010
 C         -0.000 -0.067 -0.000   -0.291  0.000 -0.111   -0.014  0.000 -0.084
 C         -0.000 -0.000 -0.000   -0.000 -0.000 -0.008    0.000 -0.000  0.009
 O         -0.000  0.000  0.000    0.000  0.000  0.070   -0.000  0.000  0.009
 H          0.000 -0.400  0.000    0.463 -0.000  0.188   -0.181  0.000 -0.435
 H          0.000  0.572 -0.000   -0.185  0.000 -0.056    0.334 -0.000 -0.283
 H          0.000 -0.000  0.000   -0.000 -0.000  0.266    0.000  0.000  0.243
 H          0.000 -0.572  0.000    0.185  0.000 -0.056   -0.334  0.000 -0.283
 H          0.000  0.400 -0.000   -0.463 -0.000  0.188    0.181 -0.000 -0.435
 TransDip   0.000 -0.000 -0.000   -0.000 -0.000 -0.201    0.000 -0.000 -0.115

 Mode:                16                     17                     18
 Frequency:      1084.77                1163.45                1185.08
 Force Cnst:      1.0826                 0.8518                 0.9419
 Red. Mass:       1.5615                 1.0681                 1.1384
 IR Active:          YES                    YES                    YES
 IR Intens:        4.378                 10.329                 27.099
 Raman Active:       YES                    YES                    YES
               X      Y      Z        X      Y      Z        X      Y      Z
 C         -0.067 -0.000  0.082    0.006  0.000  0.004    0.006  0.000 -0.044
 C         -0.059  0.000 -0.027   -0.017 -0.000  0.036   -0.046 -0.000  0.039
 C          0.113 -0.000 -0.000    0.043 -0.000  0.000   -0.000 -0.000  0.015
 C         -0.059 -0.000  0.027   -0.017  0.000 -0.036    0.046  0.000  0.039
 C         -0.067  0.000 -0.082    0.006 -0.000 -0.004   -0.006  0.000 -0.044
 C          0.079 -0.000 -0.000   -0.018  0.000 -0.000   -0.000  0.000  0.013
 O         -0.017  0.000 -0.000    0.001 -0.000 -0.000    0.000 -0.000 -0.014
 H          0.146  0.000  0.468   -0.119 -0.000 -0.214   -0.215 -0.000 -0.432
 H          0.043 -0.000 -0.218   -0.230  0.000  0.415   -0.269  0.000  0.435
 H          0.608  0.000 -0.000    0.652  0.000  0.000   -0.000 -0.000  0.015
 H          0.043  0.000  0.218   -0.230 -0.000 -0.415    0.269  0.000  0.435
 H          0.146 -0.000 -0.468   -0.119  0.000  0.214    0.215 -0.000 -0.432
 TransDip   0.067 -0.000  0.000   -0.103  0.000 -0.000    0.000 -0.000  0.167

 Mode:                19                     20                     21
 Frequency:      1252.68                1351.89                1431.54
 Force Cnst:      2.7872                 1.8269                 2.6879
 Red. Mass:       3.0147                 1.6966                 2.2261
 IR Active:          YES                    YES                    YES
 IR Intens:        8.223                 19.771                 25.381
 Raman Active:       YES                    YES                    YES
               X      Y      Z        X      Y      Z        X      Y      Z
 C         -0.109  0.000 -0.051   -0.069 -0.000 -0.121   -0.094  0.000 -0.137
 C         -0.058  0.000  0.092   -0.003 -0.000  0.028    0.099 -0.000  0.000
 C          0.087  0.000 -0.000    0.148  0.000  0.000    0.000  0.000  0.057
 C         -0.058  0.000 -0.092   -0.003  0.000 -0.028   -0.099 -0.000  0.000
 C         -0.109 -0.000  0.051   -0.069  0.000  0.121    0.094 -0.000 -0.137
 C          0.348 -0.000  0.000    0.015  0.000 -0.000    0.000  0.000 -0.104
 O         -0.033  0.000 -0.000    0.015  0.000  0.000   -0.000 -0.000  0.126
 H         -0.352 -0.000 -0.466    0.203 -0.000  0.359    0.226  0.000  0.415
 H          0.102  0.000 -0.204   -0.207  0.000  0.391   -0.139  0.000  0.449
 H         -0.179 -0.000 -0.000   -0.452 -0.000  0.000   -0.000 -0.000  0.077
 H          0.102 -0.000  0.204   -0.207 -0.000 -0.391    0.139 -0.000  0.449
 H         -0.352  0.000  0.466    0.203 -0.000 -0.359   -0.226  0.000  0.415
 TransDip  -0.092 -0.000  0.000   -0.142 -0.000 -0.000    0.000  0.000 -0.161

 Mode:                22                     23                     24
 Frequency:      1500.26                1575.50                1595.82
 Force Cnst:      3.8700                 7.1460                 7.6313
 Red. Mass:       2.9183                 4.8863                 5.0860
 IR Active:          YES                    YES                    YES
 IR Intens:       25.793                 35.412                163.313
 Raman Active:       YES                    YES                    YES
               X      Y      Z        X      Y      Z        X      Y      Z
 C         -0.029 -0.000  0.170    0.150 -0.000  0.094   -0.039 -0.000  0.066
 C          0.033  0.000 -0.219   -0.217  0.000  0.059    0.105 -0.000 -0.234
 C          0.054  0.000 -0.000    0.384  0.000  0.000   -0.000 -0.000  0.151
 C          0.033  0.000  0.219   -0.217  0.000 -0.059   -0.105  0.000 -0.234
 C         -0.029  0.000 -0.170    0.150 -0.000 -0.094    0.039 -0.000  0.066
 C          0.110  0.000 -0.000   -0.203  0.000  0.000    0.000  0.000  0.363
 O         -0.030  0.000  0.000    0.017 -0.000 -0.000   -0.000  0.000 -0.230
 H         -0.208 -0.000 -0.104   -0.076 -0.000 -0.300    0.027 -0.000  0.259
 H         -0.311  0.000  0.353   -0.053  0.000 -0.265   -0.259  0.000  0.417
 H         -0.525 -0.000 -0.000   -0.557 -0.000  0.000    0.000 -0.000  0.175
 H         -0.311 -0.000 -0.353   -0.053 -0.000  0.265    0.259 -0.000  0.417
 H         -0.208  0.000  0.104   -0.076  0.000  0.300   -0.027  0.000  0.259
 TransDip   0.163  0.000 -0.000   -0.191 -0.000  0.000    0.000  0.000  0.409

 Mode:                25                     26                     27
 Frequency:      1667.54                3114.41                3117.36
 Force Cnst:     10.6166                 6.1868                 6.2248
 Red. Mass:       6.4801                 1.0826                 1.0872
 IR Active:          YES                    YES                    YES
 IR Intens:      476.246                 37.799                 51.470
 Raman Active:       YES                    YES                    YES
               X      Y      Z        X      Y      Z        X      Y      Z
 C         -0.037  0.000 -0.281    0.015  0.000 -0.008    0.017  0.000 -0.008
 C         -0.071  0.000  0.245   -0.048  0.000 -0.026   -0.050  0.000 -0.028
 C         -0.000 -0.000 -0.105    0.000 -0.000  0.019    0.002  0.000 -0.000
 C          0.071  0.000  0.245    0.048  0.000 -0.026   -0.050 -0.000  0.028
 C          0.037 -0.000 -0.281   -0.015  0.000 -0.008    0.017 -0.000  0.008
 C          0.000  0.000  0.400    0.000 -0.000 -0.001    0.001 -0.000 -0.000
 O          0.000 -0.000 -0.163   -0.000 -0.000 -0.000   -0.000  0.000  0.000
 H          0.272  0.000  0.268   -0.193 -0.000  0.107   -0.200 -0.000  0.112
 H          0.207 -0.000 -0.246    0.562 -0.000  0.315    0.581 -0.000  0.327
 H          0.000  0.000 -0.115   -0.000  0.000 -0.259   -0.005  0.000  0.000
 H         -0.207 -0.000 -0.246   -0.562 -0.000  0.315    0.581  0.000 -0.327
 H         -0.272  0.000  0.268    0.193 -0.000  0.107   -0.200 -0.000 -0.112
 TransDip  -0.000  0.000  0.699   -0.000 -0.000 -0.197   -0.230  0.000  0.000

 Mode:                28                     29                     30
 Frequency:      3157.37                3159.27                3181.70
 Force Cnst:      6.4185                 6.4107                 6.5300
 Red. Mass:       1.0928                 1.0901                 1.0948
 IR Active:          YES                    YES                    YES
 IR Intens:      129.358                 35.189                 48.898
 Raman Active:       YES                    YES                    YES
               X      Y      Z        X      Y      Z        X      Y      Z
 C         -0.050 -0.000  0.030   -0.049 -0.000  0.028   -0.013 -0.000  0.009
 C         -0.017 -0.000 -0.012   -0.011  0.000 -0.010   -0.021 -0.000 -0.010
 C          0.003  0.000 -0.000    0.000  0.000  0.028   -0.000  0.000 -0.080
 C         -0.017 -0.000  0.012    0.011  0.000 -0.010    0.021 -0.000 -0.010
 C         -0.050  0.000 -0.030    0.049 -0.000  0.028    0.013  0.000  0.009
 C          0.003 -0.000 -0.000    0.000 -0.000  0.005   -0.000 -0.000  0.002
 O         -0.000 -0.000  0.000   -0.000 -0.000 -0.001    0.000 -0.000 -0.001
 H          0.578  0.000 -0.332    0.563  0.000 -0.319    0.147  0.000 -0.086
 H          0.196 -0.000  0.114    0.133 -0.000  0.080    0.208 -0.000  0.113
 H         -0.004  0.000  0.000   -0.000  0.000 -0.326    0.000 -0.000  0.907
 H          0.196  0.000 -0.114   -0.133 -0.000  0.080   -0.208 -0.000  0.113
 H          0.578 -0.000  0.332   -0.563  0.000 -0.319   -0.147  0.000 -0.086
 TransDip  -0.364  0.000 -0.000   -0.000  0.000  0.190    0.000 -0.000 -0.224

 STANDARD THERMODYNAMIC QUANTITIES AT   298.15 K  AND     1.00 ATM

   This Molecule has  0 Imaginary Frequencies
   Zero point vibrational energy:       57.584 kcal/mol

   Atom    1 Element C  Has Mass   12.00000
   Atom    2 Element C  Has Mass   12.00000
   Atom    3 Element C  Has Mass   12.00000
   Atom    4 Element C  Has Mass   12.00000
   Atom    5 Element C  Has Mass   12.00000
   Atom    6 Element C  Has Mass   12.00000
   Atom    7 Element O  Has Mass   15.99491
   Atom    8 Element H  Has Mass    1.00783
   Atom    9 Element H  Has Mass    1.00783
   Atom   10 Element H  Has Mass    1.00783
   Atom   11 Element H  Has Mass    1.00783
   Atom   12 Element H  Has Mass    1.00783
   Molecular Mass:    93.034060 amu
   Principal axes and moments of inertia in amu*Bohr^2:
                             1           2           3
    Eigenvalues --      312.44336   665.54096   977.98433
          X               0.00000     1.00000     0.00000
          Y               0.00000     0.00000     1.00000
          Z               1.00000     0.00000     0.00000
   Rotational Symmetry Number is   2
   The Molecule is an Asymmetric Top
   Translational Enthalpy:        0.889 kcal/mol
   Rotational Enthalpy:           0.889 kcal/mol
   Vibrational Enthalpy:         59.038 kcal/mol
   gas constant (RT):             0.592 kcal/mol
   Translational Entropy:        39.503  cal/mol.K
   Rotational Entropy:           25.433  cal/mol.K
   Vibrational Entropy:           7.085  cal/mol.K

   Total Enthalpy:               61.408 kcal/mol
   Total Entropy:                72.021  cal/mol.K
Archival summary:
1\1\exp-1-43\FREQ\ProcedureUnspecified\BasisUnspecified\165(1-,1)\jcga\TueMar1513:25:372022TueMar1513:25:372022\0\\#,FREQ,ProcedureUnspecified,BasisUnspecified,\\-1,1\C\O,1,1.25659\C,1,1.44194,2,123.281\H,3,1.08523,1,116.79,2,-0,0\C,3,1.37933,1,122.734,2,180,0\H,5,1.08748,3,118.95,1,-180,0\C,5,1.39549,3,121.857,1,0,0\H,7,1.08298,5,121.31,3,180,0\C,7,1.39549,5,117.38,3,-0,0\H,9,1.08748,7,119.193,5,-180,0\C,9,1.37933,7,121.857,5,-0,0\H,11,1.08523,9,120.476,7,-180,0\\\@

 Total job time:  2070.24s(wall), 3692.37s(cpu) 
 Tue Mar 15 13:25:37 2022

        *************************************************************
        *                                                           *
        *  Thank you very much for using Q-Chem.  Have a nice day.  *
        *                                                           *
        *************************************************************


