
Running Job 1 of 1 phenolate.in
qchem phenolate.in_2195288.0 /expanse/lustre/scratch/jcga/temp_project/qcscratch/12773755/qchem2195288/ 0
/cm/shared/apps/spack/cpu/opt/spack/linux-centos8-zen2/gcc-10.2.0/qchem-5.3-5qddma6gy34jvefiv7mbcb7qm253n45r/exe/qcprog.exe_s phenolate.in_2195288.0 /expanse/lustre/scratch/jcga/temp_project/qcscratch/12773755/qchem2195288/
                  Welcome to Q-Chem
     A Quantum Leap Into The Future Of Chemistry


 Q-Chem 5.3, Q-Chem, Inc., Pleasanton, CA (2020)

 License issued to: University of California, San Diego (site)

 Yihan Shao,  Zhengting Gan,  E. Epifanovsky,  A. T. B. Gilbert,  M. Wormit,  
 J. Kussmann,  A. W. Lange,  A. Behn,  Jia Deng,  Xintian Feng,  D. Ghosh,  
 M. Goldey,  P. R. Horn,  L. D. Jacobson,  I. Kaliman,  T. Kus,  A. Landau,  
 Jie Liu,  E. I. Proynov,  R. M. Richard,  R. P. Steele,  E. J. Sundstrom,  
 H. L. Woodcock III,  P. M. Zimmerman,  D. Zuev,  B. Alam,  B. Albrecht,  
 A. Aldossary,  E. Alguire,  S. A. Baeppler,  D. Barton,  Z. Benda,  
 Y. A. Bernard,  E. J. Berquist,  K. B. Bravaya,  H. Burton,  K. Carter-Fenk,  
 D. Casanova,  Chun-Min Chang,  Yunqing Chen,  A. Chien,  K. D. Closser,  
 M. P. Coons,  S. Coriani,  S. Dasgupta,  A. L. Dempwolff,  M. Diedenhofen,  
 Hainam Do,  R. G. Edgar,  Po-Tung Fang,  S. Faraji,  S. Fatehi,  
 Qingguo Feng,  J. Fosso-Tande,  J. Gayvert,  Qinghui Ge,  A. Ghysels,  
 G. Gidofalvi,  J. Gomes,  J. Gonthier,  S. Gulania,  A. Gunina,  D. Hait,  
 M. W. D. Hanson-Heine,  S. Hammes-Schiffer,  P. H. P. Harbach,  
 A. W. Hauser,  M. F. Herbst,  J. E. Herr,  E. G. Hohenstein,  Z. C. Holden,  
 S. Houck,  Kerwin Hui,  B. C. Huynh,  M. Ivanov,  T.-C. Jagau,  Hyunjun Ji,  
 B. Kaduk,  K. Khistyaev,  Jaehoon Kim,  P. Klunzinger,  K. Koh,  
 D. Kosenkov,  L. Koulias,  T. Kowalczyk,  C. M. Krauter,  A. Kunitsa,  
 Ka Un Lao,  A. Laurent,  K. V. Lawler,  Joonho Lee,  D. Lefrancois,  
 S. Lehtola,  D. S. Levine,  Yi-Pei Li,  You-Sheng Lin,  Fenglai Liu,  
 Kuan-Yu Liu,  E. Livshits,  M. Loipersberger,  A. Luenser,  P. Manohar,  
 E. Mansoor,  S. F. Manzer,  Shan-Ping Mao,  Yuezhi Mao,  N. Mardirossian,  
 A. V. Marenich,  T. Markovich,  L. A. Martinez-Martinez,  S. A. Maurer,  
 N. J. Mayhall,  S. C. McKenzie,  J.-M. Mewes,  P. Morgante,  A. F. Morrison,  
 J. W. Mullinax,  K. Nanda,  T. S. Nguyen-Beck,  R. Olivares-Amaya,  
 K. J. Oosterbaan,  J. A. Parkhill,  S. K. Paul,  F. Pavosevic,  Zheng Pei,  
 T. M. Perrine,  F. Plasser,  P. Pokhilko,  S. Prager,  A. Prociuk,  
 E. Ramos,  B. Rana,  D. R. Rehn,  F. Rob,  E. Rossomme,  M. Scheurer,  
 M. Schneider,  N. Sergueev,  S. M. Sharada,  S. Sharma,  W. Skomorowski,  
 D. W. Small,  T. Stauch,  C. J. Stein,  T. Stein,  Yu-Chuan Su,  
 S. P. Veccham,  Zhen Tao,  A. J. W. Thom,  A. Tkatchenko,  T. Tsuchimochi,  
 N. M. Tubman,  L. Vogt,  M. L. Vidal,  O. Vydrov,  M. A. Watson,  J. Wenzel,  
 M. de Wergifosse,  T. A. Wesolowski,  A. White,  J. Witte,  A. Yamada,  
 Jun Yang,  K. Yao,  S. Yeganeh,  S. R. Yost,  Zhi-Qiang You,  A. Zech,  
 Igor Ying Zhang,  Xing Zhang,  Yan Zhao,  Ying Zhu,  B. R. Brooks,  
 G. K. L. Chan,  C. J. Cramer,  M. S. Gordon,  W. J. Hehre,  A. Klamt,  
 M. W. Schmidt,  C. D. Sherrill,  D. G. Truhlar,  A. Aspuru-Guzik,  R. Baer,  
 A. T. Bell,  N. A. Besley,  Jeng-Da Chai,  A. E. DePrince, III,  
 R. A. DiStasio Jr.,  A. Dreuw,  B. D. Dunietz,  T. R. Furlani,  
 Chao-Ping Hsu,  Yousung Jung,  Jing Kong,  D. S. Lambrecht,  WanZhen Liang,  
 C. Ochsenfeld,  V. A. Rassolov,  L. V. Slipchenko,  J. E. Subotnik,  
 T. Van Voorhis,  J. M. Herbert,  A. I. Krylov,  P. M. W. Gill,  M. Head-Gordon

 Contributors to earlier versions of Q-Chem not listed above: 
 R. D. Adamson,  B. Austin,  J. Baker,  G. J. O. Beran,  K. Brandhorst,  
 S. T. Brown,  E. F. C. Byrd,  A. K. Chakraborty,  C.-L. Cheng,  
 Siu Hung Chien,  D. M. Chipman,  D. L. Crittenden,  H. Dachsel,  
 R. J. Doerksen,  A. D. Dutoi,  L. Fusti-Molnar,  W. A. Goddard III,  
 A. Golubeva-Zadorozhnaya,  S. R. Gwaltney,  G. Hawkins,  A. Heyden,  
 S. Hirata,  G. Kedziora,  F. J. Keil,  C. Kelley,  Jihan Kim,  R. A. King,  
 R. Z. Khaliullin,  P. P. Korambath,  W. Kurlancheek,  A. M. Lee,  M. S. Lee,  
 S. V. Levchenko,  Ching Yeh Lin,  D. Liotard,  R. C. Lochan,  I. Lotan,  
 P. E. Maslen,  N. Nair,  D. P. O'Neill,  D. Neuhauser,  E. Neuscamman,  
 C. M. Oana,  R. Olson,  B. Peters,  R. Peverati,  P. A. Pieniazek,  
 Y. M. Rhee,  J. Ritchie,  M. A. Rohrdanz,  E. Rosta,  N. J. Russ,  
 H. F. Schaefer III,  N. E. Schultz,  N. Shenvi,  A. C. Simmonett,  A. Sodt,  
 D. Stuck,  K. S. Thanthiriwatte,  V. Vanovschi,  Tao Wang,  A. Warshel,  
 C. F. Williams,  Q. Wu,  X. Xu,  W. Zhang

 Please cite Q-Chem as follows:
 Y. Shao et al., Mol. Phys. 113, 184-215 (2015)
 DOI: 10.1080/00268976.2014.952696

 Q-Chem 5.3.1 for Intel X86 EM64T Linux

 Parts of Q-Chem use Armadillo 9.800.1 (Horizon Scraper).
 http://arma.sourceforge.net/

 Q-Chem begins on Thu May 26 13:09:25 2022  

Host: 
0

     Scratch files written to /expanse/lustre/scratch/jcga/temp_project/qcscratch/12773755/qchem2195288//
 Aug2920 |scratch|qcdevops|jenkins|workspace|build_RNUM    
Processing $rem in /cm/shared/apps/spack/cpu/opt/spack/linux-centos8-zen2/gcc-10.2.0/qchem-5.3-5qddma6gy34jvefiv7mbcb7qm253n45r/config/preferences:
Processing $rem in /home/jcga/.qchemrc:

Checking the input file for inconsistencies... 	...done.

--------------------------------------------------------------
User input:
--------------------------------------------------------------
$molecule
0 2
C        -1.2342120895    0.0000000000    0.2805209563
C        -1.2184509216    0.0000000000   -1.0867497773
C         0.0000000000    0.0000000000   -1.7795411200
C         1.2184509216    0.0000000000   -1.0867497773
C         1.2342120895    0.0000000000    0.2805209563
C         0.0000000000    0.0000000000    1.0373822370
O         0.0000000000    0.0000000000    2.2797273285
H        -2.1571619201    0.0000000000    0.8434906939
H        -2.1462805556    0.0000000000   -1.6424579331
H         0.0000000000    0.0000000000   -2.8610183077
H         2.1462805556    0.0000000000   -1.6424579331
H         2.1571619201    0.0000000000    0.8434906939
$end

$rem
BASIS  =  cc-pVTZ
GUI  =  2
JOB_TYPE  =  Frequency
METHOD  =  wB97XD
SCF_CONVERGENCE  =  8
$end
--------------------------------------------------------------
 ----------------------------------------------------------------
             Standard Nuclear Orientation (Angstroms)
    I     Atom           X                Y                Z
 ----------------------------------------------------------------
    1      C      -1.2342120895    -0.0000000000     0.2876400034
    2      C      -1.2184509216    -0.0000000000    -1.0796307302
    3      C       0.0000000000    -0.0000000000    -1.7724220729
    4      C       1.2184509216    -0.0000000000    -1.0796307302
    5      C       1.2342120895     0.0000000000     0.2876400034
    6      C       0.0000000000     0.0000000000     1.0445012841
    7      O       0.0000000000     0.0000000000     2.2868463756
    8      H      -2.1571619201    -0.0000000000     0.8506097410
    9      H      -2.1462805556    -0.0000000000    -1.6353388860
   10      H       0.0000000000    -0.0000000000    -2.8538992606
   11      H       2.1462805556    -0.0000000000    -1.6353388860
   12      H       2.1571619201     0.0000000000     0.8506097410
 ----------------------------------------------------------------
 Molecular Point Group                 C2v   NOp =  4
 Largest Abelian Subgroup              C2v   NOp =  4
 Nuclear Repulsion Energy =         261.55817028 hartrees
 There are       25 alpha and       24 beta electrons
 Requested basis set is cc-pVTZ
 There are 100 shells and 280 basis functions

 Total QAlloc Memory Limit   8000 MB
 Mega-Array Size       188 MB
 MEM_STATIC part       192 MB

                       Distance Matrix (Angstroms)
             C (  1)   C (  2)   C (  3)   C (  4)   C (  5)   C (  6)
   C (  2)  1.367362
   C (  3)  2.401486  1.401636
   C (  4)  2.808022  2.436902  1.401636
   C (  5)  2.468424  2.808022  2.401486  1.367362
   C (  6)  1.447798  2.448787  2.816923  2.448787  1.447798
   O (  7)  2.349490  3.580194  4.059268  3.580194  2.349490  1.242345
   H (  8)  1.081097  2.146394  3.396122  3.888520  3.437783  2.165858
   H (  9)  2.128313  1.081517  2.150654  3.410312  3.889162  3.433375
   H ( 10)  3.375285  2.152360  1.081477  2.152360  3.375285  3.898401
   H ( 11)  3.889162  3.410312  2.150654  1.081517  2.128313  3.433375
   H ( 12)  3.437783  3.888520  3.396122  2.146394  1.081097  2.165858
             O (  7)   H (  8)   H (  9)   H ( 10)   H ( 11)
   H (  8)  2.591548
   H (  9)  4.471024  2.485972
   H ( 10)  5.140746  4.286809  2.468078
   H ( 11)  4.471024  4.969865  4.292561  2.468078
   H ( 12)  2.591548  4.314324  4.969865  4.286809  2.485972
 
 A cutoff of  1.0D-11 yielded   4704 shell pairs
 There are     37014 function pairs (     48493 Cartesian)
 Smallest overlap matrix eigenvalue = 4.46E-05
 Guess from superposition of atomic densities
 Warning:  Energy on first SCF cycle will be non-variational
 SAD guess density has 49.000000 electrons

 -----------------------------------------------------------------------
  General SCF calculation program by
  Eric Jon Sundstrom, Paul Horn, Yuezhi Mao, Dmitri Zuev, Alec White,
  David Stuck, Shaama M.S., Shane Yost, Joonho Lee, David Small,
  Daniel Levine, Susi Lehtola, Hugh Burton, Evgeny Epifanovsky,
  Bang C. Huynh
 -----------------------------------------------------------------------
 Exchange:     0.2220 Hartree-Fock + 1.0000 wB97X-D + LR-HF
 Correlation:  1.0000 wB97X-D
 Using SG-2 standard quadrature grid
 Dispersion:   Grimme D
 using 12 threads for integral computing
 -------------------------------------------------------
 OpenMP Integral computing Module                
 Release: version 1.0, May 2013, Q-Chem Inc. Pittsburgh 
 -------------------------------------------------------
 using 12 threads for integral computing
 -------------------------------------------------------
 OpenMP Integral computing Module                
 Release: version 1.0, May 2013, Q-Chem Inc. Pittsburgh 
 -------------------------------------------------------
 A unrestricted SCF calculation will be
 performed using DIIS
 SCF converges when DIIS error is below 1.0e-08
 ---------------------------------------
  Cycle       Energy         DIIS error
 ---------------------------------------
    1    -308.7753577172      1.59e-02  
    2    -306.7081673864      1.72e-03  
    3    -306.6640448260      2.36e-03  
    4    -306.8126574603      2.79e-04  
    5    -306.8160844839      1.39e-04  
    6    -306.8173845492      4.70e-05  
    7    -306.8178690131      2.76e-05  
    8    -306.8180820978      1.37e-05  
    9    -306.8181186567      3.40e-06  
   10    -306.8181220423      1.63e-06  
   11    -306.8181227463      9.40e-07  
   12    -306.8181229237      4.19e-07  
   13    -306.8181229507      1.50e-07  
   14    -306.8181229535      5.37e-08  
   15    -306.8181229537      1.67e-08  
   16    -306.8181229534      7.77e-09  Convergence criterion met
 ---------------------------------------
 SCF time:   CPU 351.28s  wall 32.00s 
<S^2> =          0.805536644
 SCF   energy in the final basis set =     -306.8181229534
 Total energy in the final basis set =     -306.8181229534
 
 --------------------------------------------------------------
             Orbital Energies (a.u.) and Symmetries
 --------------------------------------------------------------
 
 Alpha MOs, Unrestricted
 -- Occupied --                  
-19.245 -10.362 -10.327 -10.313 -10.313 -10.312 -10.312  -1.142
  1 A1    2 A1    3 A1    1 B1    4 A1    5 A1    2 B1    6 A1                 
 -0.974  -0.876  -0.843  -0.724  -0.700  -0.624  -0.576  -0.564
  7 A1    3 B1    8 A1    4 B1    9 A1   10 A1    5 B1   11 A1                 
 -0.533  -0.522  -0.520  -0.470  -0.459  -0.451  -0.368  -0.349
  6 B1    1 B2   12 A1   13 A1    7 B1    2 B2    1 A2    8 B1                 
 -0.312
  3 B2                                                                         
 -- Virtual --                   
  0.038   0.059   0.111   0.141   0.155   0.184   0.184   0.213
  2 A2    4 B2   14 A1    9 B1   15 A1   16 A1   10 B1    5 B2                 
  0.260   0.280   0.305   0.316   0.320   0.342   0.384   0.386
 17 A1   18 A1   11 B1   12 B1   19 A1    6 B2   20 A1    3 A2                 
  0.399   0.407   0.412   0.432   0.433   0.448   0.465   0.471
  7 B2   13 B1   21 A1   14 B1   22 A1   23 A1   15 B1    8 B2                 
  0.477   0.500   0.511   0.523   0.529   0.550   0.560   0.561
  4 A2   24 A1   16 B1    9 B2   25 A1   17 B1   10 B2   26 A1                 
  0.574   0.581   0.604   0.630   0.649   0.664   0.694   0.698
 27 A1   18 B1   28 A1   19 B1   29 A1   20 B1    5 A2   30 A1                 
  0.732   0.761   0.769   0.784   0.809   0.812   0.813   0.822
  6 A2   11 B2   21 B1   31 A1   12 B2   22 B1    7 A2   32 A1                 
  0.891   0.894   0.914   0.929   0.958   0.999   1.029   1.040
 13 B2   33 A1   23 B1   34 A1   24 B1   25 B1   35 A1   14 B2                 
  1.050   1.071   1.084   1.117   1.133   1.137   1.138   1.178
  8 A2   15 B2   36 A1   26 B1   16 B2   37 A1    9 A2   38 A1                 
  1.230   1.247   1.258   1.292   1.300   1.302   1.309   1.353
 39 A1   27 B1   28 B1   17 B2   10 A2   40 A1   29 B1   30 B1                 
  1.376   1.387   1.394   1.401   1.420   1.430   1.450   1.481
 18 B2   41 A1   31 B1   42 A1   32 B1   11 A2   43 A1   33 B1                 
  1.497   1.523   1.548   1.569   1.572   1.616   1.770   1.797
 44 A1   45 A1   12 A2   19 B2   34 B1   46 A1   47 A1   35 B1                 
  1.848   1.854   1.952   1.995   2.023   2.026   2.029   2.083
 13 A2   48 A1   36 B1   49 A1   37 B1   20 B2   50 A1   21 B2                 
  2.158   2.164   2.187   2.190   2.209   2.244   2.259   2.278
 51 A1   38 B1   14 A2   52 A1   22 B2   39 B1   23 B2   15 A2                 
  2.303   2.385   2.442   2.443   2.450   2.490   2.514   2.552
 53 A1   16 A2   40 B1   54 A1   55 A1   56 A1   41 B1   42 B1                 
  2.560   2.569   2.576   2.648   2.656   2.710   2.716   2.731
 24 B2   57 A1   25 B2   43 B1   44 B1   17 A2   26 B2   58 A1                 
  2.733   2.767   2.782   2.789   2.799   2.830   2.875   2.884
 27 B2   28 B2   45 B1   59 A1   18 A2   19 A2   60 A1   61 A1                 
  2.889   2.902   2.948   2.971   2.992   3.001   3.007   3.033
 29 B2   46 B1   30 B2   20 A2   31 B2   62 A1   47 B1   48 B1                 
  3.060   3.080   3.086   3.112   3.128   3.129   3.131   3.141
 63 A1   49 B1   64 A1   21 A2   50 B1   51 B1   65 A1   32 B2                 
  3.149   3.158   3.183   3.205   3.211   3.235   3.250   3.333
 66 A1   67 A1   22 A2   23 A2   68 A1   33 B2   52 B1   34 B2                 
  3.360   3.374   3.402   3.403   3.427   3.435   3.438   3.450
 24 A2   69 A1   53 B1   35 B2   25 A2   70 A1   54 B1   36 B2                 
  3.451   3.488   3.490   3.631   3.668   3.669   3.678   3.722
 55 B1   71 A1   26 A2   72 A1   37 B2   73 A1   56 B1   57 B1                 
  3.743   3.748   3.789   3.814   3.826   3.845   3.859   3.864
 27 A2   74 A1   58 B1   38 B2   28 A2   75 A1   59 B1   29 A2                 
  3.875   3.889   3.915   3.928   3.931   3.957   4.013   4.042
 76 A1   39 B2   40 B2   60 B1   77 A1   30 A2   78 A1   41 B2                 
  4.093   4.099   4.122   4.141   4.143   4.177   4.199   4.232
 61 B1   79 A1   31 A2   80 A1   62 B1   42 B2   63 B1   81 A1                 
  4.241   4.243   4.261   4.281   4.303   4.352   4.379   4.401
 43 B2   64 B1   32 A2   82 A1   44 B2   65 B1   33 A2   83 A1                 
  4.410   4.428   4.435   4.452   4.506   4.618   4.643   4.715
 66 B1   45 B2   84 A1   85 A1   67 B1   68 B1   86 A1   87 A1                 
  4.726   4.761   4.773   4.774   4.812   4.838   4.893   4.943
 46 B2   47 B2   34 A2   69 B1   70 B1   35 A2   88 A1   48 B2                 
  4.988   5.030   5.055   5.072   5.104   5.157   5.204   5.206
 89 A1   71 B1   90 A1   72 B1   36 A2   91 A1   73 B1   92 A1                 
  5.216   5.282   5.301   5.405   5.541   5.541   5.563   5.671
 74 B1   49 B2   75 B1   50 B2   93 A1   76 B1   94 A1   37 A2                 
  5.751   5.820   5.905   5.941   6.013   6.110   6.232   6.302
 95 A1   96 A1   77 B1   78 B1   79 B1   97 A1   51 B2   98 A1                 
  6.445   6.515   6.527   6.714   6.909   7.070   7.108   7.262
 38 A2   99 A1   80 B1  100 A1   52 B2   81 B1  101 A1   82 B1                 
  8.771  11.702  12.037  12.650  12.682  13.189  15.361
102 A1  103 A1   83 B1  104 A1  105 A1   84 B1  106 A1                         
 
 Beta MOs, Unrestricted
 -- Occupied --                  
-19.235 -10.364 -10.323 -10.314 -10.314 -10.310 -10.310  -1.121
  1 A1    2 A1    3 A1    1 B1    4 A1    2 B1    5 A1    6 A1                 
 -0.966  -0.872  -0.827  -0.720  -0.696  -0.619  -0.573  -0.559
  7 A1    3 B1    8 A1    4 B1    9 A1   10 A1    5 B1   11 A1                 
 -0.532  -0.512  -0.493  -0.465  -0.456  -0.406  -0.356  -0.337
  6 B1   12 A1    1 B2   13 A1    7 B1    2 B2    1 A2    8 B1                 
 -- Virtual --                   
 -0.075   0.055   0.089   0.112   0.141   0.157   0.184   0.185
  3 B2    2 A2    4 B2   14 A1    9 B1   15 A1   16 A1   10 B1                 
  0.227   0.262   0.283   0.305   0.316   0.321   0.345   0.385
  5 B2   17 A1   18 A1   11 B1   12 B1   19 A1    6 B2   20 A1                 
  0.387   0.406   0.407   0.413   0.437   0.441   0.452   0.466
  3 A2    7 B2   13 B1   21 A1   14 B1   22 A1   23 A1   15 B1                 
  0.475   0.480   0.503   0.512   0.527   0.531   0.551   0.562
  8 B2    4 A2   24 A1   16 B1    9 B2   25 A1   17 B1   26 A1                 
  0.566   0.575   0.582   0.605   0.631   0.651   0.665   0.700
 10 B2   27 A1   18 B1   28 A1   19 B1   29 A1   20 B1   30 A1                 
  0.701   0.734   0.771   0.771   0.785   0.812   0.817   0.822
  5 A2    6 A2   21 B1   11 B2   31 A1   22 B1    7 A2   12 B2                 
  0.827   0.895   0.896   0.914   0.930   0.958   1.000   1.029
 32 A1   33 A1   13 B2   23 B1   34 A1   24 B1   25 B1   35 A1                 
  1.042   1.053   1.073   1.085   1.117   1.137   1.138   1.141
 14 B2    8 A2   15 B2   36 A1   26 B1   16 B2   37 A1    9 A2                 
  1.179   1.234   1.248   1.259   1.298   1.306   1.307   1.310
 38 A1   39 A1   27 B1   28 B1   17 B2   10 A2   40 A1   29 B1                 
  1.355   1.385   1.390   1.395   1.402   1.423   1.435   1.452
 30 B1   18 B2   41 A1   31 B1   42 A1   32 B1   11 A2   43 A1                 
  1.481   1.502   1.527   1.557   1.574   1.575   1.618   1.780
 33 B1   44 A1   45 A1   12 A2   19 B2   34 B1   46 A1   47 A1                 
  1.801   1.861   1.864   1.953   1.997   2.024   2.032   2.039
 35 B1   13 A2   48 A1   36 B1   49 A1   37 B1   50 A1   20 B2                 
  2.091   2.161   2.167   2.188   2.194   2.231   2.250   2.261
 21 B2   51 A1   38 B1   14 A2   52 A1   22 B2   39 B1   23 B2                 
  2.290   2.309   2.391   2.451   2.452   2.455   2.497   2.517
 15 A2   53 A1   16 A2   40 B1   54 A1   55 A1   56 A1   41 B1                 
  2.556   2.566   2.574   2.585   2.649   2.659   2.716   2.722
 42 B1   24 B2   57 A1   25 B2   43 B1   44 B1   17 A2   26 B2                 
  2.732   2.737   2.772   2.784   2.796   2.801   2.835   2.880
 58 A1   27 B2   28 B2   45 B1   59 A1   18 A2   19 A2   60 A1                 
  2.886   2.899   2.906   2.955   2.975   3.000   3.006   3.007
 61 A1   29 B2   46 B1   30 B2   20 A2   31 B2   62 A1   47 B1                 
  3.042   3.068   3.081   3.092   3.116   3.129   3.132   3.133
 48 B1   63 A1   49 B1   64 A1   21 A2   50 B1   51 B1   65 A1                 
  3.147   3.152   3.162   3.187   3.208   3.211   3.240   3.252
 32 B2   66 A1   67 A1   22 A2   23 A2   68 A1   33 B2   52 B1                 
  3.337   3.365   3.378   3.404   3.408   3.432   3.438   3.439
 34 B2   24 A2   69 A1   53 B1   35 B2   25 A2   70 A1   54 B1                 
  3.455   3.455   3.494   3.496   3.633   3.670   3.675   3.678
 36 B2   55 B1   71 A1   26 A2   72 A1   73 A1   37 B2   56 B1                 
  3.730   3.744   3.753   3.790   3.818   3.828   3.850   3.864
 57 B1   27 A2   74 A1   58 B1   38 B2   28 A2   75 A1   59 B1                 
  3.869   3.881   3.889   3.920   3.930   3.933   3.957   4.015
 29 A2   76 A1   39 B2   40 B2   60 B1   77 A1   30 A2   78 A1                 
  4.052   4.094   4.101   4.124   4.146   4.146   4.201   4.202
 41 B2   61 B1   79 A1   31 A2   62 B1   80 A1   42 B2   63 B1                 
  4.234   4.243   4.247   4.267   4.284   4.312   4.354   4.385
 81 A1   64 B1   43 B2   32 A2   82 A1   44 B2   65 B1   33 A2                 
  4.403   4.411   4.432   4.437   4.453   4.510   4.620   4.646
 83 A1   66 B1   45 B2   84 A1   85 A1   67 B1   68 B1   86 A1                 
  4.718   4.733   4.764   4.776   4.778   4.815   4.842   4.897
 87 A1   46 B2   47 B2   69 B1   34 A2   70 B1   35 A2   88 A1                 
  4.952   4.992   5.032   5.056   5.073   5.107   5.163   5.209
 48 B2   89 A1   71 B1   90 A1   72 B1   36 A2   91 A1   73 B1                 
  5.211   5.218   5.307   5.323   5.413   5.544   5.548   5.566
 92 A1   74 B1   49 B2   75 B1   50 B2   76 B1   93 A1   94 A1                 
  5.689   5.753   5.827   5.906   5.945   6.014   6.117   6.256
 37 A2   95 A1   96 A1   77 B1   78 B1   79 B1   97 A1   51 B2                 
  6.305   6.481   6.531   6.542   6.725   6.939   7.077   7.123
 98 A1   38 A2   80 B1   99 A1  100 A1   52 B2   81 B1  101 A1                 
  7.265   8.773  11.706  12.040  12.659  12.693  13.189  15.363
 82 B1  102 A1  103 A1   83 B1  104 A1  105 A1   84 B1  106 A1                 
 --------------------------------------------------------------
 
          Ground-State Mulliken Net Atomic Charges

     Atom                 Charge (a.u.)    Spin (a.u.)
  --------------------------------------------------------
      1 C                    -0.123291       0.289912
      2 C                    -0.119469      -0.133895
      3 C                    -0.070583       0.370126
      4 C                    -0.119469      -0.133895
      5 C                    -0.123291       0.289912
      6 C                     0.206170      -0.083572
      7 O                    -0.298430       0.414632
      8 H                     0.134578      -0.006193
      9 H                     0.126528       0.004114
     10 H                     0.126150      -0.009061
     11 H                     0.126528       0.004114
     12 H                     0.134578      -0.006193
  --------------------------------------------------------
  Sum of atomic charges =    -0.000000
  Sum of spin   charges =     1.000000

 -----------------------------------------------------------------
                    Cartesian Multipole Moments
 -----------------------------------------------------------------
    Charge (ESU x 10^10)
                -0.0000
    Dipole Moment (Debye)
         X      -0.0000      Y      -0.0000      Z      -3.7964
       Tot       3.7964
    Quadrupole Moments (Debye-Ang)
        XX     -34.2041     XY       0.0000     YY     -42.2179
        XZ      -0.0000     YZ       0.0000     ZZ     -44.1551
    Octopole Moments (Debye-Ang^2)
       XXX      -0.0000    XXY      -0.0000    XYY       0.0000
       YYY       0.0000    XXZ       0.9731    XYZ       0.0000
       YYZ       5.3964    XZZ      -0.0000    YZZ      -0.0000
       ZZZ     -26.2310
    Hexadecapole Moments (Debye-Ang^3)
      XXXX    -266.5296   XXXY      -0.0000   XXYY     -63.3047
      XYYY       0.0000   YYYY     -44.9915   XXXZ       0.0000
      XXYZ      -0.0000   XYYZ      -0.0000   YYYZ       0.0000
      XXZZ    -119.1894   XYZZ      -0.0000   YYZZ     -90.5631
      XZZZ      -0.0000   YZZZ       0.0000   ZZZZ    -506.9164
 -----------------------------------------------------------------
 Calculating MO derivatives via CPSCF
    1     0    39    0.0327168  
    2     0    39    0.0108144  
    3     0    39    0.0039730  
    4     0    39    0.0020395  
    5     0    39    0.0004041  
    6    12    27    0.0000672  
    7    33     6    0.0000079  
    8    39     0    0.0000010  Converged
 Time for AOints: 253.8 s (CPU) 22.7 s (wall)
 ------------------------------------------------------------------------------
                     AOints        : Timing summary (seconds)
 ------------------------------------------------------------------------------
     job step          cpu (% of tot)      sys (% of tot)     wall (% of tot)
 ------------------------------------------------------------------------------
  AOints            0.2538E+03 ( 2.5)   0.3000E-04 ( 0.5)   0.2267E+02 ( 2.5)
 ------------------------------------------------------------------------------
   Grand Totals     0.1002E+05          0.6395E-02          0.9187E+03
 ------------------------------------------------------------------------------
 Polarizability Matrix (a.u.)
            1           2           3
    1 -74.6978061  -0.0000000  -0.0000000
    2  -0.0000000 -34.4460560   0.0000000
    3  -0.0000000   0.0000000 -94.0242302
 Calculating analytic Hessian of the SCF energy
atom: 0 element: 6
atom: 1 element: 6
atom: 2 element: 6
atom: 3 element: 6
atom: 4 element: 6
atom: 5 element: 6
atom: 6 element: 8
atom: 7 element: 1
atom: 8 element: 1
atom: 9 element: 1
atom: 10 element: 1
atom: 11 element: 1
 
 Direct stationary perturbation theory relativistic correction:
 
 rels  =       0.083226115751
 relv  =      -0.388279115414
 rel2e =       0.000000000000
 E_rel =      -0.305052999663
 
 Hessian of the SCF Energy
            1           2           3           4           5           6
    1   0.6497857   0.0000000  -0.0812762  -0.1349302  -0.0000000   0.0269122
    2   0.0000000   0.1292177   0.0000000  -0.0000000  -0.0590194  -0.0000000
    3  -0.0812762   0.0000000   0.7217044  -0.0463084   0.0000000  -0.3678118
    4  -0.1349302  -0.0000000  -0.0463084   0.6949934   0.0000000   0.0716443
    5  -0.0000000  -0.0590194   0.0000000   0.0000000   0.1345909   0.0000000
    6   0.0269122  -0.0000000  -0.3678118   0.0716443   0.0000000   0.6763736
    7   0.0192011  -0.0000000   0.0879375  -0.2554525   0.0000000   0.0060855
    8   0.0000000   0.0067253  -0.0000000   0.0000000  -0.0629415  -0.0000000
    9   0.0280677   0.0000000  -0.0403522   0.1034365  -0.0000000  -0.1583663
   10  -0.0064862   0.0000000  -0.0245886  -0.0573680  -0.0000000   0.0246214
   11   0.0000000  -0.0034968   0.0000000  -0.0000000   0.0074844   0.0000000
   12  -0.0077646  -0.0000000  -0.0382189  -0.0246214   0.0000000   0.0751275
   13  -0.0287744  -0.0000000   0.0069946  -0.0064862  -0.0000000   0.0077646
   14  -0.0000000   0.0142381  -0.0000000   0.0000000  -0.0034968   0.0000000
   15  -0.0069945   0.0000000   0.0351885   0.0245885   0.0000000  -0.0382189
   16  -0.2333342   0.0000000  -0.0309735   0.0265240  -0.0000000  -0.0300627
   17  -0.0000000  -0.0796229  -0.0000000   0.0000000   0.0055362  -0.0000000
   18  -0.0084150   0.0000000  -0.0700390  -0.0065616  -0.0000000  -0.0562449
   19   0.0097602  -0.0000000  -0.0455960  -0.0064281   0.0000000  -0.0050376
   20   0.0000000   0.0172611  -0.0000000  -0.0000000   0.0030679   0.0000000
   21  -0.0520628  -0.0000000  -0.0918047  -0.0205135   0.0000000   0.0250341
   22  -0.2720669  -0.0000000   0.1262801   0.0059654  -0.0000000  -0.0037894
   23   0.0000000  -0.0390294   0.0000000  -0.0000000   0.0065879   0.0000000
   24   0.1262634  -0.0000000  -0.1348356   0.0277213  -0.0000000  -0.0085971
   25   0.0047787   0.0000000   0.0018888  -0.2692241  -0.0000000  -0.1227369
   26   0.0000000   0.0062744   0.0000000   0.0000000  -0.0427165   0.0000000
   27  -0.0305679   0.0000000  -0.0116278  -0.1234495  -0.0000000  -0.1355978
   28  -0.0049190  -0.0000000   0.0027486   0.0054890  -0.0000000   0.0276629
   29  -0.0000000   0.0056329  -0.0000000   0.0000000   0.0059987   0.0000000
   30   0.0030519  -0.0000000   0.0004268  -0.0032879   0.0000000  -0.0103020
   31   0.0007250   0.0000000  -0.0008752  -0.0032410  -0.0000000  -0.0037833
   32  -0.0000000  -0.0012133   0.0000000  -0.0000000   0.0057734  -0.0000000
   33  -0.0002392   0.0000000  -0.0007364  -0.0031627  -0.0000000  -0.0008934
   34  -0.0037397  -0.0000000   0.0037684   0.0001583  -0.0000000   0.0007191
   35   0.0000000   0.0030322   0.0000000  -0.0000000  -0.0008651  -0.0000000
   36   0.0030251   0.0000000  -0.0018935   0.0005143  -0.0000000  -0.0005029
            7           8           9          10          11          12
    1   0.0192011   0.0000000   0.0280677  -0.0064862   0.0000000  -0.0077646
    2  -0.0000000   0.0067253   0.0000000   0.0000000  -0.0034968  -0.0000000
    3   0.0879375  -0.0000000  -0.0403522  -0.0245886   0.0000000  -0.0382189
    4  -0.2554525   0.0000000   0.1034365  -0.0573680  -0.0000000  -0.0246214
    5   0.0000000  -0.0629415  -0.0000000  -0.0000000   0.0074844   0.0000000
    6   0.0060855  -0.0000000  -0.1583663   0.0246214   0.0000000   0.0751275
    7   0.5962530  -0.0000000   0.0000000  -0.2554525   0.0000000  -0.0060855
    8  -0.0000000   0.1354709   0.0000000  -0.0000000  -0.0629415  -0.0000000
    9   0.0000000   0.0000000   0.7223298  -0.1034365  -0.0000000  -0.1583663
   10  -0.2554525  -0.0000000  -0.1034365   0.6949935   0.0000000  -0.0716443
   11   0.0000000  -0.0629415  -0.0000000   0.0000000   0.1345909   0.0000000
   12  -0.0060855  -0.0000000  -0.1583663  -0.0716443   0.0000000   0.6763736
   13   0.0192011  -0.0000000  -0.0280677  -0.1349303   0.0000000  -0.0269123
   14  -0.0000000   0.0067253   0.0000000  -0.0000000  -0.0590194   0.0000000
   15  -0.0879374   0.0000000  -0.0403521   0.0463084  -0.0000000  -0.3678118
   16  -0.0253004   0.0000000  -0.0000000   0.0265240  -0.0000000   0.0300628
   17  -0.0000000  -0.0099716  -0.0000000  -0.0000000   0.0055362  -0.0000000
   18  -0.0000000  -0.0000000   0.0230721   0.0065616   0.0000000  -0.0562450
   19  -0.0038681  -0.0000000   0.0000000  -0.0064281   0.0000000   0.0050376
   20   0.0000000   0.0003614  -0.0000000   0.0000000   0.0030679   0.0000000
   21  -0.0000000  -0.0000000  -0.0171167   0.0205135  -0.0000000   0.0250341
   22   0.0012210   0.0000000  -0.0009455   0.0001583  -0.0000000  -0.0007191
   23   0.0000000   0.0084749  -0.0000000  -0.0000000  -0.0008651   0.0000000
   24  -0.0011376   0.0000000  -0.0056017  -0.0005143  -0.0000000  -0.0005029
   25  -0.0178691   0.0000000  -0.0167855  -0.0032410  -0.0000000   0.0037833
   26  -0.0000000   0.0034382   0.0000000  -0.0000000   0.0057734   0.0000000
   27   0.0153237   0.0000000   0.0121883   0.0031627  -0.0000000  -0.0008934
   28  -0.0612855   0.0000000  -0.0000000   0.0054890  -0.0000000  -0.0276629
   29  -0.0000000  -0.0372547  -0.0000000  -0.0000000   0.0059987   0.0000000
   30   0.0000000  -0.0000000  -0.3440214   0.0032879  -0.0000000  -0.0103020
   31  -0.0178691   0.0000000   0.0167855  -0.2692241   0.0000000   0.1227369
   32  -0.0000000   0.0034382   0.0000000  -0.0000000  -0.0427165  -0.0000000
   33  -0.0153237   0.0000000   0.0121883   0.1234495  -0.0000000  -0.1355978
   34   0.0012210   0.0000000   0.0009455   0.0059654  -0.0000000   0.0037894
   35   0.0000000   0.0084749   0.0000000   0.0000000   0.0065879  -0.0000000
   36   0.0011376   0.0000000  -0.0056017  -0.0277213  -0.0000000  -0.0085971
           13          14          15          16          17          18
    1  -0.0287744  -0.0000000  -0.0069945  -0.2333342  -0.0000000  -0.0084150
    2  -0.0000000   0.0142381   0.0000000   0.0000000  -0.0796229   0.0000000
    3   0.0069946  -0.0000000   0.0351885  -0.0309735  -0.0000000  -0.0700390
    4  -0.0064862   0.0000000   0.0245885   0.0265240   0.0000000  -0.0065616
    5  -0.0000000  -0.0034968   0.0000000  -0.0000000   0.0055362  -0.0000000
    6   0.0077646   0.0000000  -0.0382189  -0.0300627  -0.0000000  -0.0562449
    7   0.0192011  -0.0000000  -0.0879374  -0.0253004  -0.0000000  -0.0000000
    8  -0.0000000   0.0067253   0.0000000   0.0000000  -0.0099716  -0.0000000
    9  -0.0280677   0.0000000  -0.0403521  -0.0000000  -0.0000000   0.0230721
   10  -0.1349303  -0.0000000   0.0463084   0.0265240  -0.0000000   0.0065616
   11   0.0000000  -0.0590194  -0.0000000  -0.0000000   0.0055362   0.0000000
   12  -0.0269123   0.0000000  -0.3678118   0.0300628  -0.0000000  -0.0562450
   13   0.6497857  -0.0000000   0.0812762  -0.2333342   0.0000000   0.0084150
   14  -0.0000000   0.1292177   0.0000000   0.0000000  -0.0796229  -0.0000000
   15   0.0812762   0.0000000   0.7217044   0.0309735  -0.0000000  -0.0700390
   16  -0.2333342   0.0000000   0.0309735   0.5703094   0.0000000   0.0000000
   17   0.0000000  -0.0796229  -0.0000000   0.0000000   0.1848336  -0.0000000
   18   0.0084150  -0.0000000  -0.0700390   0.0000000  -0.0000000   0.6989726
   19   0.0097602   0.0000000   0.0455960  -0.0958830  -0.0000000   0.0000000
   20  -0.0000000   0.0172611  -0.0000000  -0.0000000  -0.0560406   0.0000000
   21   0.0520628   0.0000000  -0.0918047   0.0000000  -0.0000000  -0.4855450
   22  -0.0037397  -0.0000000  -0.0037684  -0.0182084  -0.0000000   0.0180196
   23  -0.0000000   0.0030322  -0.0000000  -0.0000000   0.0047644  -0.0000000
   24  -0.0030251   0.0000000  -0.0018935  -0.0151254   0.0000000   0.0111186
   25   0.0007250   0.0000000   0.0008752   0.0011193   0.0000000   0.0014424
   26  -0.0000000  -0.0012133  -0.0000000   0.0000000   0.0103394  -0.0000000
   27   0.0002392   0.0000000  -0.0007364   0.0040821   0.0000000  -0.0033858
   28  -0.0049190   0.0000000  -0.0027486  -0.0013273   0.0000000  -0.0000000
   29   0.0000000   0.0056329  -0.0000000   0.0000000  -0.0008557   0.0000000
   30  -0.0030519   0.0000000   0.0004268  -0.0000000   0.0000000   0.0006025
   31   0.0047787  -0.0000000  -0.0018888   0.0011193  -0.0000000  -0.0014424
   32   0.0000000   0.0062744  -0.0000000  -0.0000000   0.0103394   0.0000000
   33   0.0305679   0.0000000  -0.0116278  -0.0040821   0.0000000  -0.0033858
   34  -0.2720669   0.0000000  -0.1262801  -0.0182084   0.0000000  -0.0180196
   35   0.0000000  -0.0390294  -0.0000000   0.0000000   0.0047644   0.0000000
   36  -0.1262634  -0.0000000  -0.1348356   0.0151254   0.0000000   0.0111186
           19          20          21          22          23          24
    1   0.0097602   0.0000000  -0.0520628  -0.2720669   0.0000000   0.1262634
    2  -0.0000000   0.0172611  -0.0000000  -0.0000000  -0.0390294  -0.0000000
    3  -0.0455960  -0.0000000  -0.0918047   0.1262801   0.0000000  -0.1348356
    4  -0.0064281  -0.0000000  -0.0205135   0.0059654  -0.0000000   0.0277213
    5   0.0000000   0.0030679   0.0000000  -0.0000000   0.0065879  -0.0000000
    6  -0.0050376   0.0000000   0.0250341  -0.0037894   0.0000000  -0.0085971
    7  -0.0038681   0.0000000  -0.0000000   0.0012210   0.0000000  -0.0011376
    8  -0.0000000   0.0003614  -0.0000000   0.0000000   0.0084749   0.0000000
    9   0.0000000  -0.0000000  -0.0171167  -0.0009455  -0.0000000  -0.0056017
   10  -0.0064281   0.0000000   0.0205135   0.0001583  -0.0000000  -0.0005143
   11   0.0000000   0.0030679  -0.0000000  -0.0000000  -0.0008651  -0.0000000
   12   0.0050376   0.0000000   0.0250341  -0.0007191   0.0000000  -0.0005029
   13   0.0097602  -0.0000000   0.0520628  -0.0037397  -0.0000000  -0.0030251
   14   0.0000000   0.0172611   0.0000000  -0.0000000   0.0030322   0.0000000
   15   0.0455960  -0.0000000  -0.0918047  -0.0037684  -0.0000000  -0.0018935
   16  -0.0958830  -0.0000000   0.0000000  -0.0182084  -0.0000000  -0.0151254
   17  -0.0000000  -0.0560406  -0.0000000  -0.0000000   0.0047644   0.0000000
   18   0.0000000   0.0000000  -0.4855450   0.0180196  -0.0000000   0.0111186
   19   0.0844277   0.0000000  -0.0000000   0.0039489   0.0000000   0.0020931
   20   0.0000000   0.0240013   0.0000000   0.0000000  -0.0028275  -0.0000000
   21  -0.0000000   0.0000000   0.6376320   0.0003026   0.0000000   0.0013894
   22   0.0039489   0.0000000   0.0003026   0.2828820   0.0000000  -0.1365929
   23   0.0000000  -0.0028275   0.0000000   0.0000000   0.0258429   0.0000000
   24   0.0020931  -0.0000000   0.0013894  -0.1365929   0.0000000   0.1379412
   25   0.0001512  -0.0000000  -0.0002917   0.0007484  -0.0000000  -0.0002987
   26  -0.0000000  -0.0015518   0.0000000  -0.0000000  -0.0053908  -0.0000000
   27  -0.0020393  -0.0000000  -0.0020972   0.0004930  -0.0000000   0.0008915
   28   0.0004591   0.0000000   0.0000000   0.0001612  -0.0000000   0.0013416
   29  -0.0000000  -0.0002213  -0.0000000   0.0000000  -0.0004791  -0.0000000
   30   0.0000000  -0.0000000  -0.0000135  -0.0002190   0.0000000  -0.0005652
   31   0.0001511   0.0000000   0.0002917   0.0000139   0.0000000   0.0000982
   32  -0.0000000  -0.0015518  -0.0000000   0.0000000  -0.0007490   0.0000000
   33   0.0020393  -0.0000000  -0.0020972   0.0001156  -0.0000000   0.0000738
   34   0.0039489  -0.0000000  -0.0003026  -0.0010841  -0.0000000  -0.0008235
   35  -0.0000000  -0.0028275  -0.0000000  -0.0000000   0.0006388  -0.0000000
   36  -0.0020931  -0.0000000   0.0013894   0.0008235  -0.0000000   0.0005813
           25          26          27          28          29          30
    1   0.0047787   0.0000000  -0.0305679  -0.0049190  -0.0000000   0.0030519
    2   0.0000000   0.0062744   0.0000000  -0.0000000   0.0056329  -0.0000000
    3   0.0018888   0.0000000  -0.0116278   0.0027486  -0.0000000   0.0004268
    4  -0.2692241   0.0000000  -0.1234495   0.0054890   0.0000000  -0.0032879
    5  -0.0000000  -0.0427165  -0.0000000  -0.0000000   0.0059987   0.0000000
    6  -0.1227369   0.0000000  -0.1355978   0.0276629   0.0000000  -0.0103020
    7  -0.0178691  -0.0000000   0.0153237  -0.0612855  -0.0000000   0.0000000
    8   0.0000000   0.0034382   0.0000000   0.0000000  -0.0372547  -0.0000000
    9  -0.0167855   0.0000000   0.0121883  -0.0000000  -0.0000000  -0.3440214
   10  -0.0032410  -0.0000000   0.0031627   0.0054890  -0.0000000   0.0032879
   11  -0.0000000   0.0057734  -0.0000000  -0.0000000   0.0059987  -0.0000000
   12   0.0037833   0.0000000  -0.0008934  -0.0276629   0.0000000  -0.0103020
   13   0.0007250  -0.0000000   0.0002392  -0.0049190   0.0000000  -0.0030519
   14   0.0000000  -0.0012133   0.0000000   0.0000000   0.0056329   0.0000000
   15   0.0008752  -0.0000000  -0.0007364  -0.0027486  -0.0000000   0.0004268
   16   0.0011193   0.0000000   0.0040821  -0.0013273   0.0000000  -0.0000000
   17   0.0000000   0.0103394   0.0000000   0.0000000  -0.0008557   0.0000000
   18   0.0014424  -0.0000000  -0.0033858  -0.0000000   0.0000000   0.0006025
   19   0.0001512  -0.0000000  -0.0020393   0.0004591  -0.0000000   0.0000000
   20  -0.0000000  -0.0015518  -0.0000000   0.0000000  -0.0002213  -0.0000000
   21  -0.0002917   0.0000000  -0.0020972   0.0000000  -0.0000000  -0.0000135
   22   0.0007484  -0.0000000   0.0004930   0.0001612   0.0000000  -0.0002190
   23  -0.0000000  -0.0053908  -0.0000000  -0.0000000  -0.0004791   0.0000000
   24  -0.0002987  -0.0000000   0.0008915   0.0013416  -0.0000000  -0.0005652
   25   0.2830000   0.0000000   0.1326329   0.0008341   0.0000000   0.0003441
   26   0.0000000   0.0288746  -0.0000000   0.0000000  -0.0032975   0.0000000
   27   0.1326329  -0.0000000   0.1400512  -0.0005170   0.0000000   0.0006725
   28   0.0008341   0.0000000  -0.0005170   0.0590232   0.0000000   0.0000000
   29   0.0000000  -0.0032975   0.0000000   0.0000000   0.0226218  -0.0000000
   30   0.0003441   0.0000000   0.0006725   0.0000000  -0.0000000   0.3629681
   31  -0.0010365   0.0000000   0.0007556   0.0008341  -0.0000000  -0.0003441
   32   0.0000000   0.0002188   0.0000000  -0.0000000  -0.0032975  -0.0000000
   33  -0.0007556  -0.0000000   0.0004611   0.0005170   0.0000000   0.0006725
   34   0.0000139   0.0000000  -0.0001156   0.0001612   0.0000000   0.0002190
   35  -0.0000000  -0.0007490  -0.0000000  -0.0000000  -0.0004791  -0.0000000
   36  -0.0000982   0.0000000   0.0000738  -0.0013416  -0.0000000  -0.0005652
           31          32          33          34          35          36
    1   0.0007250  -0.0000000  -0.0002392  -0.0037397   0.0000000   0.0030251
    2   0.0000000  -0.0012133   0.0000000  -0.0000000   0.0030322   0.0000000
    3  -0.0008752   0.0000000  -0.0007364   0.0037684   0.0000000  -0.0018935
    4  -0.0032410  -0.0000000  -0.0031627   0.0001583  -0.0000000   0.0005143
    5  -0.0000000   0.0057734  -0.0000000  -0.0000000  -0.0008651  -0.0000000
    6  -0.0037833  -0.0000000  -0.0008934   0.0007191  -0.0000000  -0.0005029
    7  -0.0178691  -0.0000000  -0.0153237   0.0012210   0.0000000   0.0011376
    8   0.0000000   0.0034382   0.0000000   0.0000000   0.0084749   0.0000000
    9   0.0167855   0.0000000   0.0121883   0.0009455   0.0000000  -0.0056017
   10  -0.2692241  -0.0000000   0.1234495   0.0059654   0.0000000  -0.0277213
   11   0.0000000  -0.0427165  -0.0000000  -0.0000000   0.0065879  -0.0000000
   12   0.1227369  -0.0000000  -0.1355978   0.0037894  -0.0000000  -0.0085971
   13   0.0047787   0.0000000   0.0305679  -0.2720669   0.0000000  -0.1262634
   14  -0.0000000   0.0062744   0.0000000   0.0000000  -0.0390294  -0.0000000
   15  -0.0018888  -0.0000000  -0.0116278  -0.1262801  -0.0000000  -0.1348356
   16   0.0011193  -0.0000000  -0.0040821  -0.0182084   0.0000000   0.0151254
   17  -0.0000000   0.0103394   0.0000000   0.0000000   0.0047644   0.0000000
   18  -0.0014424   0.0000000  -0.0033858  -0.0180196   0.0000000   0.0111186
   19   0.0001511  -0.0000000   0.0020393   0.0039489  -0.0000000  -0.0020931
   20   0.0000000  -0.0015518  -0.0000000  -0.0000000  -0.0028275  -0.0000000
   21   0.0002917  -0.0000000  -0.0020972  -0.0003026  -0.0000000   0.0013894
   22   0.0000139   0.0000000   0.0001156  -0.0010841  -0.0000000   0.0008235
   23   0.0000000  -0.0007490  -0.0000000  -0.0000000   0.0006388  -0.0000000
   24   0.0000982   0.0000000   0.0000738  -0.0008235  -0.0000000   0.0005813
   25  -0.0010365   0.0000000  -0.0007556   0.0000139  -0.0000000  -0.0000982
   26   0.0000000   0.0002188  -0.0000000   0.0000000  -0.0007490   0.0000000
   27   0.0007556   0.0000000   0.0004611  -0.0001156  -0.0000000   0.0000738
   28   0.0008341  -0.0000000   0.0005170   0.0001612  -0.0000000  -0.0013416
   29  -0.0000000  -0.0032975   0.0000000   0.0000000  -0.0004791  -0.0000000
   30  -0.0003441  -0.0000000   0.0006725   0.0002190  -0.0000000  -0.0005652
   31   0.2830000   0.0000000  -0.1326329   0.0007484  -0.0000000   0.0002987
   32   0.0000000   0.0288746   0.0000000   0.0000000  -0.0053908   0.0000000
   33  -0.1326329   0.0000000   0.1400512  -0.0004930   0.0000000   0.0008915
   34   0.0007484   0.0000000  -0.0004930   0.2828820  -0.0000000   0.1365930
   35  -0.0000000  -0.0053908   0.0000000  -0.0000000   0.0258429   0.0000000
   36   0.0002987   0.0000000   0.0008915   0.1365930   0.0000000   0.1379412
 **********************************************************************
 **                                                                  **
 **                       VIBRATIONAL ANALYSIS                       **
 **                       --------------------                       **
 **                                                                  **
 **        VIBRATIONAL FREQUENCIES (CM**-1) AND NORMAL MODES         **
 **     FORCE CONSTANTS (mDYN/ANGSTROM) AND REDUCED MASSES (AMU)     **
 **                  INFRARED INTENSITIES (KM/MOL)                   **
 **                                                                  **
 **********************************************************************
 

 Mode:                 1                      2                      3
 Frequency:       190.04                 389.01                 452.52
 Force Cnst:      0.1063                 0.2789                 0.7163
 Red. Mass:       4.9975                 3.1281                 5.9370
 IR Active:          YES                    NO                     YES
 IR Intens:        2.533                  0.000                  4.767
 Raman Active:       YES                    YES                    YES
               X      Y      Z        X      Y      Z        X      Y      Z
 C         -0.000 -0.273  0.000   -0.000  0.218  0.000   -0.258 -0.000 -0.037
 C         -0.000 -0.001  0.000    0.000 -0.221  0.000    0.049  0.000 -0.066
 C         -0.000  0.257  0.000    0.000 -0.000 -0.000    0.120  0.000  0.000
 C          0.000 -0.001 -0.000   -0.000  0.221  0.000    0.049 -0.000  0.066
 C          0.000 -0.273  0.000   -0.000 -0.218 -0.000   -0.258  0.000  0.037
 C          0.000 -0.121 -0.000   -0.000 -0.000 -0.000   -0.224  0.000 -0.000
 O          0.000  0.313 -0.000    0.000  0.000  0.000    0.414 -0.000 -0.000
 H          0.000 -0.393  0.000   -0.000  0.450 -0.000   -0.395 -0.000 -0.258
 H         -0.000  0.063  0.000    0.000 -0.448  0.000    0.143 -0.000 -0.228
 H         -0.000  0.597  0.000    0.000 -0.000 -0.000    0.156  0.000  0.000
 H          0.000  0.063  0.000    0.000  0.448  0.000    0.143 -0.000  0.228
 H         -0.000 -0.393  0.000   -0.000 -0.450  0.000   -0.395  0.000  0.258
 TransDip  -0.000 -0.051  0.000   -0.000 -0.000  0.000   -0.070 -0.000  0.000

 Mode:                 4                      5                      6
 Frequency:       496.67                 534.88                 599.87
 Force Cnst:      0.4385                 1.3558                 1.4486
 Red. Mass:       3.0173                 8.0435                 6.8326
 IR Active:          YES                    YES                    YES
 IR Intens:        0.157                  2.283                  0.665
 Raman Active:       YES                    YES                    YES
               X      Y      Z        X      Y      Z        X      Y      Z
 C          0.000  0.040  0.000    0.196 -0.000 -0.056    0.132  0.000 -0.249
 C         -0.000 -0.173  0.000    0.184 -0.000 -0.124   -0.239 -0.000 -0.304
 C         -0.000  0.215  0.000   -0.000  0.000 -0.396   -0.141  0.000  0.000
 C          0.000 -0.173 -0.000   -0.184 -0.000 -0.124   -0.239  0.000  0.304
 C          0.000  0.040 -0.000   -0.196  0.000 -0.056    0.132 -0.000  0.249
 C          0.000  0.250 -0.000   -0.000  0.000  0.325    0.142  0.000 -0.000
 O         -0.000 -0.088 -0.000    0.000 -0.000  0.379    0.151 -0.000 -0.000
 H          0.000 -0.215  0.000    0.019  0.000 -0.341    0.199 -0.000 -0.135
 H         -0.000 -0.499 -0.000    0.052 -0.000  0.094   -0.291 -0.000 -0.219
 H         -0.000  0.479  0.000    0.000  0.000 -0.396    0.313 -0.000  0.000
 H         -0.000 -0.499 -0.000   -0.052 -0.000  0.094   -0.291 -0.000  0.219
 H          0.000 -0.215 -0.000   -0.019  0.000 -0.341    0.199 -0.000  0.135
 TransDip   0.000 -0.013 -0.000   -0.000  0.000 -0.048   -0.026 -0.000  0.000

 Mode:                 7                      8                      9
 Frequency:       675.11                 811.61                 822.26
 Force Cnst:      0.4007                 2.0138                 0.8424
 Red. Mass:       1.4920                 5.1888                 2.1148
 IR Active:          YES                    YES                    YES
 IR Intens:       39.605                  1.636                 38.906
 Raman Active:       YES                    YES                    YES
               X      Y      Z        X      Y      Z        X      Y      Z
 C         -0.000  0.055 -0.000    0.267 -0.000  0.084   -0.000 -0.091 -0.000
 C         -0.000 -0.101 -0.000    0.202  0.000  0.144   -0.000  0.023 -0.000
 C         -0.000  0.025  0.000   -0.000 -0.000 -0.082   -0.000 -0.166  0.000
 C         -0.000 -0.101  0.000   -0.202 -0.000  0.144    0.000  0.023 -0.000
 C          0.000  0.055  0.000   -0.267 -0.000  0.084    0.000 -0.091 -0.000
 C          0.000 -0.128 -0.000   -0.000  0.000 -0.192   -0.000  0.230  0.000
 O          0.000  0.019 -0.000   -0.000 -0.000 -0.206    0.000 -0.045  0.000
 H         -0.000  0.500 -0.000    0.342 -0.000  0.182   -0.000 -0.014 -0.000
 H         -0.000  0.201 -0.000    0.059  0.000  0.401   -0.000  0.473 -0.000
 H         -0.000  0.613  0.000   -0.000  0.000 -0.076   -0.000  0.673  0.000
 H         -0.000  0.201 -0.000   -0.059  0.000  0.401    0.000  0.473 -0.000
 H          0.000  0.500 -0.000   -0.342  0.000  0.182    0.000 -0.014 -0.000
 TransDip  -0.000  0.202  0.000   -0.000  0.000  0.041   -0.000  0.200 -0.000

 Mode:                10                     11                     12
 Frequency:       846.36                 957.49                 993.09
 Force Cnst:      0.5250                 0.8302                 3.1654
 Red. Mass:       1.2439                 1.5371                 5.4475
 IR Active:          NO                     YES                    YES
 IR Intens:        0.000                 13.900                  2.184
 Raman Active:       YES                    YES                    YES
               X      Y      Z        X      Y      Z        X      Y      Z
 C          0.000 -0.086  0.000    0.000  0.100 -0.000    0.293 -0.000 -0.133
 C          0.000 -0.058  0.000   -0.000  0.028 -0.000   -0.163 -0.000 -0.106
 C         -0.000 -0.000 -0.000    0.000 -0.120  0.000    0.000  0.000  0.324
 C         -0.000  0.058  0.000    0.000  0.028 -0.000    0.163 -0.000 -0.106
 C         -0.000  0.086  0.000   -0.000  0.100 -0.000   -0.293 -0.000 -0.133
 C          0.000  0.000 -0.000    0.000 -0.106 -0.000    0.000 -0.000 -0.010
 O         -0.000 -0.000 -0.000   -0.000  0.024  0.000   -0.000  0.000  0.106
 H          0.000  0.566  0.000    0.000 -0.510  0.000    0.445  0.000  0.100
 H         -0.000  0.411  0.000   -0.000 -0.164 -0.000   -0.137 -0.000 -0.136
 H         -0.000  0.000 -0.000   -0.000  0.615  0.000    0.000 -0.000  0.330
 H          0.000 -0.411  0.000    0.000 -0.164 -0.000    0.137  0.000 -0.136
 H         -0.000 -0.566  0.000   -0.000 -0.510  0.000   -0.445  0.000  0.100
 TransDip  -0.000  0.000  0.000   -0.000 -0.119 -0.000    0.000  0.000 -0.047

 Mode:                13                     14                     15
 Frequency:      1024.57                1036.84                1045.11
 Force Cnst:      1.4654                 0.8362                 0.8403
 Red. Mass:       2.3693                 1.3201                 1.3058
 IR Active:          YES                    NO                     YES
 IR Intens:        0.117                  0.000                  0.313
 Raman Active:       YES                    YES                    YES
               X      Y      Z        X      Y      Z        X      Y      Z
 C         -0.013  0.000 -0.068    0.000  0.071  0.000   -0.000  0.059 -0.000
 C          0.186 -0.000  0.006   -0.000 -0.096 -0.000    0.000 -0.091  0.000
 C         -0.000 -0.000  0.212    0.000  0.000 -0.000    0.000  0.060  0.000
 C         -0.186  0.000  0.006    0.000  0.096 -0.000   -0.000 -0.091  0.000
 C          0.013 -0.000 -0.068   -0.000 -0.071  0.000    0.000  0.059 -0.000
 C          0.000 -0.000  0.005    0.000 -0.000 -0.000    0.000 -0.009 -0.000
 O          0.000 -0.000 -0.000    0.000  0.000  0.000   -0.000  0.004 -0.000
 H         -0.202 -0.000 -0.392    0.000 -0.402  0.000   -0.000 -0.359 -0.000
 H          0.372  0.000 -0.280   -0.000  0.569  0.000    0.000  0.555 -0.000
 H         -0.000  0.000  0.230    0.000 -0.000 -0.000    0.000 -0.315  0.000
 H         -0.372 -0.000 -0.280    0.000 -0.569  0.000   -0.000  0.555 -0.000
 H          0.202  0.000 -0.392   -0.000  0.402  0.000    0.000 -0.359 -0.000
 TransDip  -0.000 -0.000 -0.011    0.000 -0.000 -0.000    0.000  0.018 -0.000

 Mode:                16                     17                     18
 Frequency:      1108.31                1171.80                1184.15
 Force Cnst:      1.1039                 1.0061                 1.0070
 Red. Mass:       1.5253                 1.2436                 1.2189
 IR Active:          YES                    YES                    YES
 IR Intens:        9.325                  2.351                  0.658
 Raman Active:       YES                    YES                    YES
               X      Y      Z        X      Y      Z        X      Y      Z
 C         -0.064 -0.000  0.077    0.008 -0.000 -0.021   -0.018 -0.000  0.056
 C         -0.059  0.000 -0.033   -0.047  0.000  0.059    0.039  0.000 -0.055
 C          0.110 -0.000 -0.000    0.093 -0.000  0.000    0.000  0.000 -0.019
 C         -0.059 -0.000  0.033   -0.047  0.000 -0.059   -0.039  0.000 -0.055
 C         -0.064  0.000 -0.077    0.008 -0.000  0.021    0.018 -0.000  0.056
 C          0.073  0.000  0.000   -0.016 -0.000  0.000    0.000  0.000 -0.035
 O         -0.015 -0.000 -0.000    0.000  0.000 -0.000   -0.000 -0.000  0.035
 H          0.172  0.000  0.486   -0.083  0.000 -0.174    0.219  0.000  0.455
 H          0.063 -0.000 -0.252   -0.254 -0.000  0.406    0.252 -0.000 -0.414
 H          0.536  0.000 -0.000    0.668  0.000  0.000    0.000 -0.000 -0.021
 H          0.063  0.000  0.252   -0.254 -0.000 -0.406   -0.252 -0.000 -0.414
 H          0.172 -0.000 -0.486   -0.083  0.000  0.174   -0.219  0.000  0.455
 TransDip   0.098  0.000  0.000    0.049  0.000 -0.000    0.000  0.000  0.026

 Mode:                19                     20                     21
 Frequency:      1290.98                1344.35                1452.50
 Force Cnst:      2.7648                 2.2146                 2.5810
 Red. Mass:       2.8156                 2.0797                 2.0764
 IR Active:          YES                    YES                    YES
 IR Intens:        9.139                  5.448                  0.851
 Raman Active:       YES                    YES                    YES
               X      Y      Z        X      Y      Z        X      Y      Z
 C         -0.092  0.000 -0.045    0.036  0.000  0.158   -0.093 -0.000 -0.099
 C         -0.065 -0.000  0.091    0.039 -0.000 -0.078    0.096  0.000 -0.030
 C          0.075  0.000 -0.000   -0.169 -0.000  0.000   -0.000  0.000  0.064
 C         -0.065  0.000 -0.091    0.039  0.000  0.078   -0.096 -0.000 -0.030
 C         -0.092 -0.000  0.045    0.036 -0.000 -0.158    0.093  0.000 -0.099
 C          0.333 -0.000 -0.000    0.025  0.000 -0.000   -0.000  0.000 -0.121
 O         -0.036 -0.000  0.000   -0.018 -0.000  0.000    0.000 -0.000  0.124
 H         -0.331 -0.000 -0.433   -0.293 -0.000 -0.378    0.173  0.000  0.343
 H          0.152  0.000 -0.282    0.085  0.000 -0.159   -0.211 -0.000  0.509
 H         -0.191 -0.000 -0.000    0.616  0.000  0.000    0.000  0.000  0.080
 H          0.152 -0.000  0.282    0.085 -0.000  0.159    0.211  0.000  0.509
 H         -0.331  0.000  0.433   -0.293  0.000  0.378   -0.173 -0.000  0.343
 TransDip   0.097  0.000 -0.000   -0.075  0.000 -0.000    0.000 -0.000  0.030

 Mode:                22                     23                     24
 Frequency:      1464.69                1522.44                1571.43
 Force Cnst:      2.7284                 6.1547                 4.8900
 Red. Mass:       2.1586                 4.5069                 3.3610
 IR Active:          YES                    YES                    YES
 IR Intens:        3.057                 16.739                  4.766
 Raman Active:       YES                    YES                    YES
               X      Y      Z        X      Y      Z        X      Y      Z
 C         -0.104 -0.000  0.041   -0.037  0.000 -0.157    0.099 -0.000  0.163
 C          0.083  0.000 -0.142    0.043 -0.000  0.034   -0.135  0.000 -0.085
 C          0.004 -0.000  0.000    0.000  0.000  0.022    0.286 -0.000 -0.000
 C          0.083  0.000  0.142   -0.043  0.000  0.034   -0.135  0.000  0.085
 C         -0.104 -0.000 -0.041    0.037 -0.000 -0.157    0.099 -0.000 -0.163
 C          0.158  0.000 -0.000    0.000  0.000  0.433   -0.092  0.000 -0.000
 O         -0.019 -0.000  0.000   -0.000 -0.000 -0.231   -0.004  0.000  0.000
 H         -0.077  0.000  0.121    0.338 -0.000  0.476   -0.177  0.000 -0.278
 H         -0.324 -0.000  0.526    0.016 -0.000  0.096   -0.181 -0.000 -0.062
 H         -0.302 -0.000  0.000   -0.000  0.000  0.033   -0.704 -0.000 -0.000
 H         -0.324 -0.000 -0.526   -0.016  0.000  0.096   -0.181 -0.000  0.062
 H         -0.077  0.000 -0.121   -0.338  0.000  0.476   -0.177  0.000  0.278
 TransDip  -0.056 -0.000  0.000   -0.000 -0.000  0.131   -0.070  0.000 -0.000

 Mode:                25                     26                     27
 Frequency:      1615.35                3195.27                3203.09
 Force Cnst:      7.6629                 6.5324                 6.5833
 Red. Mass:       4.9844                 1.0859                 1.0891
 IR Active:          YES                    YES                    YES
 IR Intens:       51.136                  0.119                  6.052
 Raman Active:       YES                    YES                    YES
               X      Y      Z        X      Y      Z        X      Y      Z
 C         -0.010 -0.000 -0.226   -0.014 -0.000  0.007    0.022  0.000 -0.011
 C         -0.084  0.000  0.306    0.039  0.000  0.024   -0.048 -0.000 -0.028
 C         -0.000 -0.000 -0.145   -0.000 -0.000 -0.049    0.003  0.000 -0.000
 C          0.084  0.000  0.306   -0.039  0.000  0.024   -0.048 -0.000  0.028
 C          0.010 -0.000 -0.226    0.014 -0.000  0.007    0.022 -0.000  0.011
 C          0.000 -0.000 -0.116    0.000 -0.000 -0.000   -0.000 -0.000  0.000
 O         -0.000  0.000  0.130    0.000  0.000  0.000   -0.000  0.000  0.000
 H          0.187  0.000  0.042    0.164  0.000 -0.097   -0.253 -0.000  0.150
 H          0.346  0.000 -0.390   -0.460 -0.000 -0.276    0.550  0.000  0.328
 H          0.000  0.000 -0.164    0.000 -0.000  0.586   -0.005  0.000  0.000
 H         -0.346 -0.000 -0.390    0.460 -0.000 -0.276    0.550  0.000 -0.328
 H         -0.187 -0.000  0.042   -0.164  0.000 -0.097   -0.253 -0.000 -0.150
 TransDip   0.000  0.000 -0.229    0.000  0.000  0.011   -0.079  0.000  0.000

 Mode:                28                     29                     30
 Frequency:      3215.16                3223.64                3227.16
 Force Cnst:      6.6493                 6.7056                 6.7380
 Red. Mass:       1.0918                 1.0952                 1.0981
 IR Active:          YES                    YES                    YES
 IR Intens:       11.855                  7.881                  1.651
 Raman Active:       YES                    YES                    YES
               X      Y      Z        X      Y      Z        X      Y      Z
 C          0.032 -0.000 -0.018   -0.048  0.000  0.031   -0.040  0.000  0.026
 C         -0.020  0.000 -0.008   -0.022 -0.000 -0.016   -0.030 -0.000 -0.019
 C         -0.000  0.000 -0.063    0.003  0.000  0.000    0.000 -0.000 -0.033
 C          0.020 -0.000 -0.008   -0.022 -0.000  0.016    0.030 -0.000 -0.019
 C         -0.032  0.000 -0.018   -0.048  0.000 -0.031    0.040 -0.000  0.026
 C         -0.000  0.000 -0.002    0.003 -0.000 -0.000    0.000  0.000  0.002
 O          0.000 -0.000  0.000   -0.000  0.000  0.000   -0.000 -0.000 -0.000
 H         -0.363 -0.000  0.216    0.548 -0.000 -0.331    0.454 -0.000 -0.275
 H          0.211  0.000  0.120    0.249  0.000  0.152    0.330  0.000  0.198
 H          0.000 -0.000  0.719   -0.003  0.000 -0.000   -0.000  0.000  0.362
 H         -0.211 -0.000  0.120    0.249  0.000 -0.152   -0.330 -0.000  0.198
 H          0.363 -0.000  0.216    0.548 -0.000  0.331   -0.454  0.000 -0.275
 TransDip   0.000 -0.000 -0.110   -0.090 -0.000  0.000   -0.000 -0.000 -0.041

 STANDARD THERMODYNAMIC QUANTITIES AT   298.15 K  AND     1.00 ATM

   This Molecule has  0 Imaginary Frequencies
   Zero point vibrational energy:       58.135 kcal/mol

   Atom    1 Element C  Has Mass   12.00000
   Atom    2 Element C  Has Mass   12.00000
   Atom    3 Element C  Has Mass   12.00000
   Atom    4 Element C  Has Mass   12.00000
   Atom    5 Element C  Has Mass   12.00000
   Atom    6 Element C  Has Mass   12.00000
   Atom    7 Element O  Has Mass   15.99491
   Atom    8 Element H  Has Mass    1.00783
   Atom    9 Element H  Has Mass    1.00783
   Atom   10 Element H  Has Mass    1.00783
   Atom   11 Element H  Has Mass    1.00783
   Atom   12 Element H  Has Mass    1.00783
   Molecular Mass:    93.034060 amu
   Principal axes and moments of inertia in amu*Bohr^2:
                             1           2           3
    Eigenvalues --      324.44694   640.11077   964.55771
          X               0.00000     1.00000     0.00000
          Y               0.00000    -0.00000     1.00000
          Z               1.00000     0.00000     0.00000
   Rotational Symmetry Number is   2
   The Molecule is an Asymmetric Top
   Translational Enthalpy:        0.889 kcal/mol
   Rotational Enthalpy:           0.889 kcal/mol
   Vibrational Enthalpy:         59.617 kcal/mol
   gas constant (RT):             0.592 kcal/mol
   Translational Entropy:        39.503  cal/mol.K
   Rotational Entropy:           25.418  cal/mol.K
   Vibrational Entropy:           7.317  cal/mol.K

   Total Enthalpy:               61.987 kcal/mol
   Total Entropy:                72.238  cal/mol.K
Archival summary:
1\1\exp-1-08\FREQ\ProcedureUnspecified\BasisUnspecified\165(2)\jcga\ThuMay2613:33:522022ThuMay2613:33:522022\0\\#,FREQ,ProcedureUnspecified,BasisUnspecified,\\0,2\C\O,1,1.24235\C,1,1.4478,2,121.518\H,3,1.0811,1,117.1,2,0,0\C,3,1.36736,1,120.858,2,-180,0\H,5,1.08152,3,120.258,1,180,0\C,5,1.40164,3,120.282,1,-0,0\H,7,1.08148,5,119.622,3,180,0\C,7,1.40164,5,120.756,3,0,0\H,9,1.08152,7,119.459,5,-180,0\C,9,1.36736,7,120.282,5,-0,0\H,11,1.0811,9,122.042,7,-180,0\\\@

 Total job time:  1466.78s(wall), 12254.18s(cpu) 
 Thu May 26 13:33:52 2022

        *************************************************************
        *                                                           *
        *  Thank you very much for using Q-Chem.  Have a nice day.  *
        *                                                           *
        *************************************************************


